LAMMPS data file via write_data, version 7 Dec 2015, timestep = 100000

100 atoms
100 ellipsoids
1 atom types
100 bonds
1 bond types
200 angles
2 angle types

-3.0000000000000000e+01 3.0000000000000000e+01 xlo xhi
-3.0000000000000000e+01 3.0000000000000000e+01 ylo yhi
-3.0000000000000000e+01 3.0000000000000000e+01 zlo zhi

Masses

1 1

Atoms # hybrid

18 1 6.9577687866770521e+00 -9.6930627245386383e+00 -1.5757128021968612e+01 1 1 1.9098599999999999e+00 0 0 0
19 1 6.4628850689074149e+00 -8.8470268770987914e+00 -1.5911740674483182e+01 1 1 1.9098599999999999e+00 0 0 0
20 1 5.9575358167282308e+00 -8.0076911275407365e+00 -1.6027828446360790e+01 1 1 1.9098599999999999e+00 0 0 0
22 1 4.7471825349646410e+00 -6.4421991652963495e+00 -1.5934175063223437e+01 1 1 1.9098599999999999e+00 0 0 0
21 1 5.3901962419028076e+00 -7.1152777887795402e+00 -1.6109790541474187e+01 1 1 1.9098599999999999e+00 0 0 0
17 1 7.3467286168253514e+00 -1.0480434897230872e+01 -1.5387255851396779e+01 1 1 1.9098599999999999e+00 0 0 0
23 1 4.0905552145504682e+00 -5.7376070731230095e+00 -1.5504894762681330e+01 1 1 1.9098599999999999e+00 0 0 0
24 1 3.5510834669387727e+00 -5.0257507904569998e+00 -1.5050965260897531e+01 1 1 1.9098599999999999e+00 0 0 0
15 1 7.9662647675569254e+00 -1.2220027243740910e+01 -1.4586468648764754e+01 1 1 1.9098599999999999e+00 0 0 0
16 1 7.6177801757067005e+00 -1.1436269895771437e+01 -1.4973617841529467e+01 1 1 1.9098599999999999e+00 0 0 0
25 1 2.8880982083496121e+00 -4.3965339184668304e+00 -1.4682502887208569e+01 1 1 1.9098599999999999e+00 0 0 0
14 1 8.3831536976963381e+00 -1.2932565251486190e+01 -1.4055285060018443e+01 1 1 1.9098599999999999e+00 0 0 0
26 1 2.2272523194469995e+00 -3.7447307818110001e+00 -1.4271466550086510e+01 1 1 1.9098599999999999e+00 0 0 0
27 1 1.5282050759962860e+00 -3.3164814654093151e+00 -1.3667641269853384e+01 1 1 1.9098599999999999e+00 0 0 0
12 1 8.9564507923645440e+00 -1.4412987527726781e+01 -1.2907861362616710e+01 1 1 1.9098599999999999e+00 0 0 0
13 1 8.7596087752333602e+00 -1.3641097218746685e+01 -1.3516802981875546e+01 1 1 1.9098599999999999e+00 0 0 0
28 1 9.2199549346148235e-01 -2.9936507380404049e+00 -1.2885299661173118e+01 1 1 1.9098599999999999e+00 0 0 0
11 1 8.9605916285545355e+00 -1.5191577128727955e+01 -1.2324060710137640e+01 1 1 1.9098599999999999e+00 0 0 0
10 1 9.0813042883641266e+00 -1.5812804782386447e+01 -1.1620991208892983e+01 1 1 1.9098599999999999e+00 0 0 0
29 1 7.2202131964206384e-01 -2.6532552632580395e+00 -1.1943828350106845e+01 1 1 1.9098599999999999e+00 0 0 0
9 1 9.2342500207791129e+00 -1.6523190329022963e+01 -1.0973187030590989e+01 1 1 1.9098599999999999e+00 0 0 0
30 1 5.7403282216138996e-01 -2.5478106680108437e+00 -1.0919965668894898e+01 1 1 1.9098599999999999e+00 0 0 0
8 1 9.5023959818279771e+00 -1.7183236230763853e+01 -1.0265132695691758e+01 1 1 1.9098599999999999e+00 0 0 0
7 1 9.9910802800647645e+00 -1.7651714489634937e+01 -9.6208556231137994e+00 1 1 1.9098599999999999e+00 0 0 0
31 1 5.7191863883226746e-01 -2.3879964438624506e+00 -9.9596953774573223e+00 1 1 1.9098599999999999e+00 0 0 0
6 1 1.0436405793039643e+01 -1.8128515980674383e+01 -8.8527024400617567e+00 1 1 1.9098599999999999e+00 0 0 0
32 1 8.7728565481164855e-01 -2.4322038294776540e+00 -9.0540164316299823e+00 1 1 1.9098599999999999e+00 0 0 0
5 1 1.1072370199669352e+01 -1.8355284880399996e+01 -8.1293387235526833e+00 1 1 1.9098599999999999e+00 0 0 0
33 1 9.5850731296182123e-01 -2.4106132135399365e+00 -8.1421008451075760e+00 1 1 1.9098599999999999e+00 0 0 0
4 1 1.1580182640821327e+01 -1.8834463817765329e+01 -7.4937211712536520e+00 1 1 1.9098599999999999e+00 0 0 0
34 1 9.6804055225283159e-01 -2.5371977699836350e+00 -7.1835008301176977e+00 1 1 1.9098599999999999e+00 0 0 0
3 1 1.2235953178059964e+01 -1.9108428532437241e+01 -6.7828040996894314e+00 1 1 1.9098599999999999e+00 0 0 0
2 1 1.2997771811863112e+01 -1.9435998033363177e+01 -6.2213223558080220e+00 1 1 1.9098599999999999e+00 0 0 0
1 1 1.3825874658614445e+01 -1.9596678918948012e+01 -5.7599526636546603e+00 1 1 1.9098599999999999e+00 0 0 0
35 1 1.1291659090569082e+00 -2.7286319577334650e+00 -6.2591689681758291e+00 1 1 1.9098599999999999e+00 0 0 0
100 1 1.4543361359233989e+01 -1.9955441566922328e+01 -5.1386540342376898e+00 1 1 1.9098599999999999e+00 0 0 0
36 1 1.2676380368868894e+00 -3.0312872892661940e+00 -5.2913543015696130e+00 1 1 1.9098599999999999e+00 0 0 0
99 1 1.5291807224006897e+01 -2.0274638766812959e+01 -4.4993128130201212e+00 1 1 1.9098599999999999e+00 0 0 0
37 1 1.2582804406849060e+00 -3.3337274390483778e+00 -4.3484957410334175e+00 1 1 1.9098599999999999e+00 0 0 0
98 1 1.5941753834076819e+01 -2.0535106163003761e+01 -3.8519474660314010e+00 1 1 1.9098599999999999e+00 0 0 0
97 1 1.6722190419338780e+01 -2.0852634201590725e+01 -3.2887040146672142e+00 1 1 1.9098599999999999e+00 0 0 0
38 1 1.5897145221084366e+00 -3.6169847799253052e+00 -3.4903932411830532e+00 1 1 1.9098599999999999e+00 0 0 0
96 1 1.7307939170111641e+01 -2.1201853597672695e+01 -2.5999231855571590e+00 1 1 1.9098599999999999e+00 0 0 0
39 1 1.8683836967604401e+00 -4.1369908813872556e+00 -2.6520547232775811e+00 1 1 1.9098599999999999e+00 0 0 0
95 1 1.8082362878950718e+01 -2.1330582808439821e+01 -1.9295745780437887e+00 1 1 1.9098599999999999e+00 0 0 0
40 1 2.1374334213691029e+00 -4.5654216234151681e+00 -1.8205137359511645e+00 1 1 1.9098599999999999e+00 0 0 0
94 1 1.8739122331202118e+01 -2.1470148629164147e+01 -1.2566084558751727e+00 1 1 1.9098599999999999e+00 0 0 0
41 1 2.6259056176859255e+00 -4.8432144348714381e+00 -1.0749172169258985e+00 1 1 1.9098599999999999e+00 0 0 0
93 1 1.9340331707539114e+01 -2.1545651251675739e+01 -4.4234162535507543e-01 1 1 1.9098599999999999e+00 0 0 0
42 1 3.1999104879751616e+00 -5.1252247896009004e+00 -2.1446515025072760e-01 1 1 1.9098599999999999e+00 0 0 0
92 1 1.9839445414123713e+01 -2.1726223875974846e+01 3.5751851456946776e-01 1 1 1.9098599999999999e+00 0 0 0
43 1 3.7354203426359187e+00 -5.1833590084084182e+00 5.7603960622335060e-01 1 1 1.9098599999999999e+00 0 0 0
91 1 2.0233363416563044e+01 -2.1833854238213767e+01 1.2119665730254103e+00 1 1 1.9098599999999999e+00 0 0 0
90 1 2.0573418898217128e+01 -2.2095310882054076e+01 2.0875934944529742e+00 1 1 1.9098599999999999e+00 0 0 0
44 1 4.0156813494244705e+00 -5.4068341813365146e+00 1.4596264758584587e+00 1 1 1.9098599999999999e+00 0 0 0
45 1 4.2782280594935624e+00 -5.5037029931832597e+00 2.3777895055802252e+00 1 1 1.9098599999999999e+00 0 0 0
89 1 2.0968342809244810e+01 -2.2193832983452246e+01 3.0095843219238207e+00 1 1 1.9098599999999999e+00 0 0 0
46 1 4.4889239117906490e+00 -5.6858984065043146e+00 3.3595581252145332e+00 1 1 1.9098599999999999e+00 0 0 0
88 1 2.1511254236940115e+01 -2.2342869244623746e+01 3.8511571998130911e+00 1 1 1.9098599999999999e+00 0 0 0
47 1 4.5587966607267782e+00 -5.8789758335623024e+00 4.2755685610466330e+00 1 1 1.9098599999999999e+00 0 0 0
87 1 2.2091289178267271e+01 -2.2371156555404241e+01 4.6298655027791167e+00 1 1 1.9098599999999999e+00 0 0 0
86 1 2.2529667670715050e+01 -2.2499137497216108e+01 5.4697884575088933e+00 1 1 1.9098599999999999e+00 0 0 0
48 1 4.7650864498658621e+00 -6.1079117747081275e+00 5.1943297399080244e+00 1 1 1.9098599999999999e+00 0 0 0
85 1 2.2576084367292101e+01 -2.2741221819565574e+01 6.4215171581803858e+00 1 1 1.9098599999999999e+00 0 0 0
49 1 5.2037600538568318e+00 -6.1112871755609888e+00 6.1115863782687168e+00 1 1 1.9098599999999999e+00 0 0 0
50 1 5.7188471836915094e+00 -6.0772498223989722e+00 6.9281959277093410e+00 1 1 1.9098599999999999e+00 0 0 0
84 1 2.2816271071873498e+01 -2.2688395064192338e+01 7.2961266608598070e+00 1 1 1.9098599999999999e+00 0 0 0
51 1 6.3163456597829519e+00 -6.0865744299142737e+00 7.6484955855698091e+00 1 1 1.9098599999999999e+00 0 0 0
83 1 2.2913609767562242e+01 -2.2510070793542514e+01 8.2481694358514428e+00 1 1 1.9098599999999999e+00 0 0 0
52 1 7.0254413133341780e+00 -6.2045381344146096e+00 8.3014348422459623e+00 1 1 1.9098599999999999e+00 0 0 0
82 1 2.3169260370317634e+01 -2.2048867527382320e+01 9.0779849780255581e+00 1 1 1.9098599999999999e+00 0 0 0
53 1 7.7229002945725513e+00 -6.2803307346178618e+00 8.9601589214978166e+00 1 1 1.9098599999999999e+00 0 0 0
81 1 2.3534543173962078e+01 -2.1608532388870380e+01 9.9257595599509987e+00 1 1 1.9098599999999999e+00 0 0 0
54 1 8.4155323396945256e+00 -6.2944785148801294e+00 9.5911827516062438e+00 1 1 1.9098599999999999e+00 0 0 0
56 1 1.0132234561186683e+01 -6.5110118382957705e+00 1.0375912656791824e+01 1 1 1.9098599999999999e+00 0 0 0
57 1 1.1009345818010106e+01 -6.9120212903599185e+00 1.0579525835353969e+01 1 1 1.9098599999999999e+00 0 0 0
55 1 9.2471080763431317e+00 -6.2526389699764282e+00 1.0094579988011697e+01 1 1 1.9098599999999999e+00 0 0 0
80 1 2.3783270931786273e+01 -2.1336730218186009e+01 1.0816796167635157e+01 1 1 1.9098599999999999e+00 0 0 0
63 1 1.5687622868468340e+01 -1.0117710414735127e+01 1.1220196677827705e+01 1 1 1.9098599999999999e+00 0 0 0
62 1 1.5024934225956518e+01 -9.4454617179619085e+00 1.0957167308184365e+01 1 1 1.9098599999999999e+00 0 0 0
61 1 1.4265699577850539e+01 -8.7983031971853194e+00 1.0967398501562215e+01 1 1 1.9098599999999999e+00 0 0 0
60 1 1.3539569211520696e+01 -8.1565546384996512e+00 1.0987317796547133e+01 1 1 1.9098599999999999e+00 0 0 0
58 1 1.1835113198362032e+01 -7.3259693275857058e+00 1.0761900180840078e+01 1 1 1.9098599999999999e+00 0 0 0
59 1 1.2675325222633557e+01 -7.8156726818844584e+00 1.0863137573472251e+01 1 1 1.9098599999999999e+00 0 0 0
79 1 2.3744305488578529e+01 -2.0885794859119880e+01 1.1648968176985466e+01 1 1 1.9098599999999999e+00 0 0 0
65 1 1.6914419256828051e+01 -1.1485967985869063e+01 1.1782843747157647e+01 1 1 1.9098599999999999e+00 0 0 0
64 1 1.6283559156099098e+01 -1.0807450216766508e+01 1.1436308343389713e+01 1 1 1.9098599999999999e+00 0 0 0
78 1 2.3682741442900536e+01 -2.0410535178346176e+01 1.2411669417913599e+01 1 1 1.9098599999999999e+00 0 0 0
66 1 1.7506281491315693e+01 -1.2171655260389835e+01 1.2224978652085262e+01 1 1 1.9098599999999999e+00 0 0 0
67 1 1.8120369207007460e+01 -1.2757398433732764e+01 1.2672850824074352e+01 1 1 1.9098599999999999e+00 0 0 0
77 1 2.3679243817861050e+01 -1.9706636222981345e+01 1.2982810330616939e+01 1 1 1.9098599999999999e+00 0 0 0
76 1 2.3642620505634490e+01 -1.8886092387228025e+01 1.3512906580965128e+01 1 1 1.9098599999999999e+00 0 0 0
68 1 1.8769089493597669e+01 -1.3289429071688064e+01 1.3234560166970784e+01 1 1 1.9098599999999999e+00 0 0 0
75 1 2.3424066547387291e+01 -1.7926040275346523e+01 1.3765359740937541e+01 1 1 1.9098599999999999e+00 0 0 0
74 1 2.2964056413380238e+01 -1.7127258917995956e+01 1.3909446687350458e+01 1 1 1.9098599999999999e+00 0 0 0
73 1 2.2458710885394414e+01 -1.6320178403675271e+01 1.3967336471466984e+01 1 1 1.9098599999999999e+00 0 0 0
72 1 2.1965133470449413e+01 -1.5507846903674904e+01 1.4010437521230568e+01 1 1 1.9098599999999999e+00 0 0 0
70 1 2.0283057001480501e+01 -1.4385240217846347e+01 1.3896769785613991e+01 1 1 1.9098599999999999e+00 0 0 0
71 1 2.1203700772336237e+01 -1.4889998464105673e+01 1.3937462247381346e+01 1 1 1.9098599999999999e+00 0 0 0
69 1 1.9559194290258624e+01 -1.3769481313791893e+01 1.3659669743839995e+01 1 1 1.9098599999999999e+00 0 0 0

Velocities

18 0.722559 0.307651 1.52466 2.9753283466426622e-01 3.5997796442280142e-02 2.0588380152289595e-01
19 -0.524798 1.4626 0.287254 -2.1180839819533176e-01 -1.0378230683333584e-01 -5.0611462005574603e-01
20 0.692682 -0.0711107 -0.665921 -2.0419610276130193e-01 -6.9953768555988505e-01 -7.2759499700275239e-03
22 0.011694 1.29006 -0.7707 1.7822342381421458e-01 2.3710844595932618e-03 -1.3788066771834476e-01
21 1.24886 2.47808 0.79442 2.0675558241040684e-01 -2.6723879447644011e-01 3.1920785872960977e-01
17 -0.202891 1.20079 -1.72849 -3.2911610693689425e-01 1.9141665075174938e-01 -9.9225089271023525e-01
23 -0.290544 0.290214 0.293519 1.5518160424857788e-01 -6.9500092847013209e-02 -3.4457361569454470e-01
24 0.16655 -0.586899 -0.353829 6.3535865180506496e-02 2.4413612334521814e-01 -2.9637184915548487e-01
15 0.995601 -0.858899 1.02967 1.3319578373910805e+00 -1.6432114626916289e-01 2.9360089633092612e-01
16 0.484822 0.328289 -1.31404 5.8680420812067306e-02 -2.2668309833774997e-01 4.9363917924673581e-02
25 0.604212 0.67929 -1.15372 2.7549112083913513e-01 -2.2182913524458153e-02 -1.7352082919539233e-01
14 0.996696 -0.695084 2.07528 -2.8082899801739059e-01 -2.3845312076596073e-01 -2.5044892464327123e-01
26 -0.609131 -0.114287 -1.15855 7.0173336581812629e-02 2.0991083026537916e-01 5.9311289962353175e-01
27 0.35598 0.770229 0.960046 -5.0806548123860118e-01 1.9409542953903264e-01 3.8852757549668887e-01
12 0.178256 1.47029 0.37487 -1.8409875302854850e-01 -3.8980148995280528e-01 -1.4151869786253532e-02
13 0.0710378 -0.674482 -1.3992 7.1119246175585848e-02 -2.1511499941745493e-01 -4.7990349604253113e-01
28 1.57728 0.473682 -0.598976 4.8020353235327268e-01 1.1680618203983126e-02 -1.2719009262184891e-01
11 0.0434813 0.212943 -0.770335 -1.1630129096214227e-02 -1.5975272760620213e-01 -2.0124911369947623e-01
10 -0.267721 -0.408755 -0.0555933 -2.8777573390429900e-01 2.1962035115171066e-01 8.7123134385836298e-02
29 0.362686 0.882085 -0.652996 -8.2743246994969322e-02 -3.0212831483280078e-02 -4.6509012518755763e-02
9 -1.52487 -0.520532 -0.763573 2.9154688119462348e-02 3.0187941609297236e-01 5.7098146335242916e-01
30 0.0190763 -0.0486083 -0.657218 -4.3258905145709659e-01 4.8774666094406738e-01 -4.3508515819386651e-01
8 2.48375 -0.998685 -1.24767 -2.4496264662113862e-01 4.0465849205144572e-01 3.2239188106336980e-01
7 0.0342831 -0.259889 -0.729145 1.6688141897118031e-01 1.3830054010339621e-01 -5.9620747949239716e-01
31 0.366443 0.129063 -2.72446 -4.8093954025225205e-01 -1.1750363175320716e-02 -6.4615883170930130e-02
6 -0.430114 -0.698057 1.47748 -2.9199031062133152e-01 1.6059009621088671e-01 2.4112037065551489e-01
32 1.37654 0.62109 0.40248 1.6310260497935858e-01 2.7667785549960600e-01 -1.1296684732747114e-02
5 -0.540558 -0.613913 -0.516262 -6.6333223507663332e-03 9.3642086758988358e-02 1.1209222007623802e-02
33 0.00306415 0.627395 1.37515 -1.9838089102452106e-01 9.5126761997970613e-02 -4.2842989354995897e-01
4 -0.156872 -0.321199 2.09953 -4.1700875628801332e-01 -2.5307208042631577e-02 2.1375202076702679e-01
34 -1.14925 -0.896353 0.0550119 -1.2420174250125895e-01 4.4254906549583040e-01 7.0902100746001873e-01
3 -0.596636 -0.177139 0.612077 -3.4804095685152719e-02 -6.6566579508365908e-01 8.5121133226591997e-02
2 0.640548 0.378569 -0.13785 4.5937592017785467e-01 -2.1678187875861046e-01 -2.0484493286280402e-02
1 -1.15601 0.14468 -1.03638 5.0746576255016523e-02 1.7821366416083473e-01 2.4814354986226800e-01
35 0.125591 -1.52596 0.175506 -4.9384928777610532e-01 5.2041102012858698e-01 4.8804862710952975e-02
100 -1.30127 0.352506 0.787199 -4.1167858657956463e-01 1.1996267084228432e-01 -4.6662820984719072e-01
36 -0.49786 -1.77379 -0.408979 -5.9560997029750340e-01 1.8732037744085023e-01 1.9914771737503123e-01
99 -0.879496 0.769748 0.540963 2.0349669661992809e-01 -5.5465743898601670e-02 6.2888867569778240e-02
37 -0.827465 -1.24585 0.585393 1.8603470306589664e-01 -3.7151453133713386e-01 2.9592121693599760e-02
98 0.705909 -0.041758 0.623201 -3.7001325334755575e-01 5.2474086181465729e-01 -2.0026697557069786e-01
97 0.247574 0.527897 1.56072 9.0820200468678058e-02 5.6718748931012086e-01 4.7614948237454224e-01
38 -0.261281 0.183451 -1.66407 4.0545441879813682e-01 4.5752222672976384e-01 4.1697330129580912e-01
96 0.703408 -0.42374 -2.28314 1.2641019992639677e-01 -4.2711811244414544e-01 4.7145776489573715e-02
39 -1.81538 0.386165 1.07349 -3.0243308552531031e-02 2.7503744920020290e-01 2.0689111680556718e-02
95 -0.573509 -1.12623 1.08359 1.6092069905579279e-01 -4.3786683272563554e-01 1.2772604313148739e-01
40 -0.93868 0.837769 -1.46547 -8.6041680765993125e-03 5.4897079531481530e-01 3.1488077116864832e-01
94 -0.782319 1.30944 0.563754 -5.5148158392849522e-01 -8.3406262526925790e-03 -3.3613973286143106e-01
41 -0.659567 -0.100769 0.701507 1.9947606401496129e-01 -3.2597501401693263e-01 -8.6380976368182383e-01
93 -0.678549 -0.779499 0.417009 7.0827140432814295e-02 -3.0576252333069115e-01 1.2448478455842416e-01
42 0.606157 0.7565 0.639196 5.8189024341681095e-01 4.6274244382518359e-01 7.5488846737457205e-02
92 2.07514 -1.33094 0.734209 1.7833706237297528e-01 3.3341506756863082e-01 -9.6233191172945889e-02
43 -1.16016 0.0122734 -1.22092 -1.6307677468874501e-01 3.8709887813634930e-01 2.3567013581413154e-01
91 0.489599 -0.519094 -1.32542 -4.8873917632376730e-02 6.4878814245521790e-02 -1.3411046805587307e-01
90 0.69862 0.368402 1.75454 4.7566355830584522e-02 -1.9641716113391111e-01 -1.2677994591445141e-04
44 -1.0712 0.0261565 -0.438582 1.0700926587669636e-01 4.2582951421619064e-01 4.2074227598295122e-01
45 -0.00644621 1.87868 1.69915 1.2712923227895206e-01 3.1902941045965899e-01 -1.2164958139977734e-01
89 0.375436 -1.28711 -0.183529 7.5251716337922284e-02 6.1364026031603425e-01 2.2761684785041927e-01
46 -0.0162128 -0.343681 -0.344862 -1.4961001122297846e-01 3.2502141248198357e-01 -3.3400393196289108e-01
88 -0.403027 -1.0402 0.722474 3.7542417648055115e-01 -1.8561135516187544e-01 2.0027902280170445e-01
47 -1.72869 -0.601158 0.363317 -2.9554231362121852e-01 7.5087237841896048e-01 -5.9187071760122234e-01
87 0.0671279 -1.38026 -0.438665 2.2342761122197755e-02 2.3137326961648025e-01 1.1081295780662553e-01
86 -0.953314 -0.144363 -1.75254 5.0023960869362760e-01 -1.4505238696277242e-01 -4.8481942138841938e-01
48 -1.29239 0.460104 1.46772 7.2314012981098824e-03 -4.4621098859332392e-01 -4.4440422463194976e-02
85 0.0183816 -0.204763 0.324392 -2.7574272158665564e-01 5.4201038591579487e-02 -1.9989642413140662e-02
49 -0.276498 1.43868 -0.235393 -9.9714538618015602e-02 -1.0314253846870389e-02 -2.3207170178949024e-01
50 0.339692 0.478805 -0.224159 2.3167434830696554e-01 -8.2703642713162318e-01 1.1991851229191844e-01
84 -1.66175 1.24747 1.24478 -4.7898843365230970e-01 -2.2255671848031655e-01 -2.9922220204730826e-01
51 0.577701 1.02441 -1.26343 -4.7789880387921191e-01 3.7396611840198948e-02 -2.6488046620845401e-01
83 -0.317973 -0.814523 -0.265992 1.4877196661549835e-01 -9.2512194035168194e-02 2.7777033866273204e-01
52 0.434167 0.122439 0.793184 3.2188516811027440e-01 -1.5669000416018941e-01 -7.5650440962815180e-01
82 -0.579042 -0.389035 -1.11249 1.5982396612020483e-01 1.7900788376859905e-01 1.5188825110078799e-01
53 -0.753876 -0.292685 1.82955 3.2312212412627561e-01 1.8832733955259032e-01 6.0891464833913100e-01
81 0.547684 0.418362 0.0312104 2.6175076452901747e-01 -1.7795277050951713e-02 5.1835064482525295e-01
54 0.106587 0.0625046 -0.529421 -6.4224887470458292e-02 4.6568968945118715e-02 -4.6332356292073856e-02
56 0.914678 -1.27813 0.771782 -2.6421259996647672e-01 4.8353803171636056e-01 -2.7645552417575642e-01
57 -1.815 -0.106232 -0.608356 -4.2815723285208773e-02 -6.6217540710606193e-01 -3.8169033039393907e-01
55 -1.98978 0.599832 -0.499373 -2.8675415265597116e-02 4.1740226226533694e-01 -3.0729429309074484e-02
80 -0.448244 0.371495 1.25376 -6.6429799404875378e-01 3.0805119055189284e-01 -4.1153043181030696e-01
63 1.05216 -1.35749 -2.33738 2.5168068910168617e-01 -1.9592830567338715e-01 1.1710767424867478e-01
62 1.2197 0.323953 -0.313541 -1.5302312679245009e-01 2.1679011195172562e-01 -2.5976755443534111e-01
61 1.04923 -1.04602 1.35608 6.8641174236690439e-01 1.6771939053597626e-02 -1.3325372903210023e-01
60 1.13645 -1.40235 0.069657 -2.6948027730095298e-01 -2.1646689964727972e-01 -1.6296555565149229e-01
58 -0.226783 -0.41978 0.634262 3.3570735126495910e-01 -1.0205903688176612e-01 -1.8611814183681791e-01
59 0.746523 -0.285916 -0.535436 5.2580905702059066e-01 -4.4644646613884265e-01 -1.5783395402067962e-01
79 0.609948 1.67877 -0.206553 1.4439647848808568e-01 -9.1552254229854538e-02 6.2699009995497190e-01
65 -1.45453 -0.160838 0.748597 -6.0244361378924305e-02 3.4564456261228849e-01 -5.4793479768911291e-01
64 -0.738807 0.181935 -0.8745 -4.8655625575255053e-02 -4.3907307221479459e-02 -4.7380259992475970e-01
78 1.42996 -0.877694 0.0909594 2.8392901716566993e-01 2.6434715389254820e-01 7.3752167642703453e-02
66 -0.667251 -0.678196 0.95907 1.2349983251973323e-01 1.4477172149669959e-01 9.4066601127859972e-02
67 1.10749 -0.575159 0.523222 -1.1220623405954225e-01 -1.8874538452049583e-01 2.7681713264605179e-01
77 0.142234 -0.615016 -1.00383 1.7230376887196047e-01 -3.3491465241483981e-01 -4.8804412164425243e-01
76 1.49438 0.732355 -0.118232 -2.1974478591055061e-01 -4.0289533015900381e-01 -2.1275844163431687e-01
68 1.44277 -1.16431 -0.502277 -1.1227699055615491e-01 5.4683716125120096e-01 -3.2280778387638487e-02
75 0.655192 0.364674 -0.710413 1.3179952156950972e-01 2.2634798837710385e-01 -1.5742679271917262e-02
74 -1.29039 -1.29351 0.752284 4.8280079021414113e-01 -4.8605924120962590e-01 3.1559123368874775e-01
73 -0.715784 0.0408448 -0.662993 3.1679841408202888e-02 2.2310309135601722e-01 -4.2122433107639701e-01
72 -1.98125 -0.592565 0.52424 -2.1301665162735586e-01 2.2922816232489363e-01 1.0242521411194930e-01
70 0.568691 -1.15431 0.341076 -8.1051241283483330e-02 2.0117359004473159e-01 -1.7007333480701955e-01
71 0.557168 -1.57877 0.777848 2.5314778903405566e-01 2.0647164021617523e-02 -9.0395667643862157e-02
69 -0.172044 -0.503975 -0.704695 -1.0503297022883343e-01 9.4743732088312702e-02 -9.5619972238938339e-02

Bonds

1 1 18 19
2 1 19 20
3 1 20 21
4 1 22 23
5 1 21 22
6 1 17 18
7 1 23 24
8 1 24 25
9 1 15 16
10 1 16 17
11 1 25 26
12 1 14 15
13 1 26 27
14 1 27 28
15 1 12 13
16 1 13 14
17 1 28 29
18 1 11 12
19 1 10 11
20 1 29 30
21 1 9 10
22 1 30 31
23 1 8 9
24 1 7 8
25 1 31 32
26 1 6 7
27 1 32 33
28 1 5 6
29 1 33 34
30 1 4 5
31 1 34 35
32 1 3 4
33 1 2 3
34 1 1 2
35 1 35 36
36 1 100 1
37 1 36 37
38 1 99 100
39 1 37 38
40 1 98 99
41 1 97 98
42 1 38 39
43 1 96 97
44 1 39 40
45 1 95 96
46 1 40 41
47 1 94 95
48 1 41 42
49 1 93 94
50 1 42 43
51 1 92 93
52 1 43 44
53 1 91 92
54 1 90 91
55 1 44 45
56 1 45 46
57 1 89 90
58 1 46 47
59 1 88 89
60 1 47 48
61 1 87 88
62 1 86 87
63 1 48 49
64 1 85 86
65 1 49 50
66 1 50 51
67 1 84 85
68 1 51 52
69 1 83 84
70 1 52 53
71 1 82 83
72 1 53 54
73 1 81 82
74 1 54 55
75 1 56 57
76 1 57 58
77 1 55 56
78 1 80 81
79 1 63 64
80 1 62 63
81 1 61 62
82 1 60 61
83 1 58 59
84 1 59 60
85 1 79 80
86 1 65 66
87 1 64 65
88 1 78 79
89 1 66 67
90 1 67 68
91 1 77 78
92 1 76 77
93 1 68 69
94 1 75 76
95 1 74 75
96 1 73 74
97 1 72 73
98 1 70 71
99 1 71 72
100 1 69 70

Angles

1 2 17 18 19
2 1 17 18 19
3 2 18 19 20
4 1 18 19 20
5 2 19 20 21
6 1 19 20 21
7 2 21 22 23
8 1 21 22 23
9 2 20 21 22
10 1 20 21 22
11 2 16 17 18
12 1 16 17 18
13 2 22 23 24
14 1 22 23 24
15 2 23 24 25
16 1 23 24 25
17 2 14 15 16
18 1 14 15 16
19 2 15 16 17
20 1 15 16 17
21 2 24 25 26
22 1 24 25 26
23 2 13 14 15
24 1 13 14 15
25 2 25 26 27
26 1 25 26 27
27 2 26 27 28
28 1 26 27 28
29 2 11 12 13
30 1 11 12 13
31 2 12 13 14
32 1 12 13 14
33 2 27 28 29
34 1 27 28 29
35 2 10 11 12
36 1 10 11 12
37 2 9 10 11
38 1 9 10 11
39 2 28 29 30
40 1 28 29 30
41 2 8 9 10
42 1 8 9 10
43 2 29 30 31
44 1 29 30 31
45 2 7 8 9
46 1 7 8 9
47 2 6 7 8
48 1 6 7 8
49 2 30 31 32
50 1 30 31 32
51 2 5 6 7
52 1 5 6 7
53 2 31 32 33
54 1 31 32 33
55 2 4 5 6
56 1 4 5 6
57 2 32 33 34
58 1 32 33 34
59 2 3 4 5
60 1 3 4 5
61 2 33 34 35
62 1 33 34 35
63 2 2 3 4
64 1 2 3 4
65 2 1 2 3
66 1 1 2 3
67 1 100 1 2
68 2 100 1 2
69 2 34 35 36
70 1 34 35 36
71 2 99 100 1
72 1 99 100 1
73 2 35 36 37
74 1 35 36 37
75 2 98 99 100
76 1 98 99 100
77 2 36 37 38
78 1 36 37 38
79 2 97 98 99
80 1 97 98 99
81 2 96 97 98
82 1 96 97 98
83 2 37 38 39
84 1 37 38 39
85 2 95 96 97
86 1 95 96 97
87 2 38 39 40
88 1 38 39 40
89 2 94 95 96
90 1 94 95 96
91 2 39 40 41
92 1 39 40 41
93 2 93 94 95
94 1 93 94 95
95 2 40 41 42
96 1 40 41 42
97 2 92 93 94
98 1 92 93 94
99 2 41 42 43
100 1 41 42 43
101 2 91 92 93
102 1 91 92 93
103 2 42 43 44
104 1 42 43 44
105 2 90 91 92
106 1 90 91 92
107 2 89 90 91
108 1 89 90 91
109 2 43 44 45
110 1 43 44 45
111 2 44 45 46
112 1 44 45 46
113 2 88 89 90
114 1 88 89 90
115 2 45 46 47
116 1 45 46 47
117 2 87 88 89
118 1 87 88 89
119 2 46 47 48
120 1 46 47 48
121 2 86 87 88
122 1 86 87 88
123 2 85 86 87
124 1 85 86 87
125 2 47 48 49
126 1 47 48 49
127 2 84 85 86
128 1 84 85 86
129 2 48 49 50
130 1 48 49 50
131 2 49 50 51
132 1 49 50 51
133 2 83 84 85
134 1 83 84 85
135 2 50 51 52
136 1 50 51 52
137 2 82 83 84
138 1 82 83 84
139 2 51 52 53
140 1 51 52 53
141 2 81 82 83
142 1 81 82 83
143 2 52 53 54
144 1 52 53 54
145 2 80 81 82
146 1 80 81 82
147 2 53 54 55
148 1 53 54 55
149 2 55 56 57
150 1 55 56 57
151 2 56 57 58
152 1 56 57 58
153 2 54 55 56
154 1 54 55 56
155 2 79 80 81
156 1 79 80 81
157 2 62 63 64
158 1 62 63 64
159 2 61 62 63
160 1 61 62 63
161 2 60 61 62
162 1 60 61 62
163 2 59 60 61
164 1 59 60 61
165 2 57 58 59
166 1 57 58 59
167 2 58 59 60
168 1 58 59 60
169 2 78 79 80
170 1 78 79 80
171 2 64 65 66
172 1 64 65 66
173 2 63 64 65
174 1 63 64 65
175 2 77 78 79
176 1 77 78 79
177 2 65 66 67
178 1 65 66 67
179 2 66 67 68
180 1 66 67 68
181 2 76 77 78
182 1 76 77 78
183 2 75 76 77
184 1 75 76 77
185 2 67 68 69
186 1 67 68 69
187 2 74 75 76
188 1 74 75 76
189 2 73 74 75
190 1 73 74 75
191 2 72 73 74
192 1 72 73 74
193 2 71 72 73
194 1 71 72 73
195 2 69 70 71
196 1 69 70 71
197 2 70 71 72
198 1 70 71 72
199 2 68 69 70
200 1 68 69 70

 Ellipsoids

1 1.0 1.0 1.0 0.569316 -0.159842 -0.804753 -0.0519934
2 1.0 1.0 1.0 0.348108 -0.063744 -0.923663 -0.146987
3 1.0 1.0 1.0 0.36391 0.0430848 -0.917837 -0.152604
4 1.0 1.0 1.0 0.174789 0.0395965 -0.934128 -0.308684
5 1.0 1.0 1.0 0.282511 0.191639 -0.908738 -0.24012
6 1.0 1.0 1.0 0.183925 0.280792 -0.893838 -0.297291
7 1.0 1.0 1.0 0.204043 0.47878 -0.789488 -0.325336
8 1.0 1.0 1.0 -0.138357 0.515634 -0.807552 -0.250675
9 1.0 1.0 1.0 -0.197846 0.632755 -0.681962 -0.30888
10 1.0 1.0 1.0 -0.176037 0.637265 -0.712328 -0.235571
11 1.0 1.0 1.0 -0.32128 0.695123 -0.570743 -0.296371
12 1.0 1.0 1.0 -0.287286 0.806559 -0.456342 -0.242243
13 1.0 1.0 1.0 -0.237025 0.850059 -0.376724 -0.281598
14 1.0 1.0 1.0 -0.343923 0.877602 -0.251109 -0.220171
15 1.0 1.0 1.0 -0.455393 0.848903 -0.0433116 -0.264774
16 1.0 1.0 1.0 -0.519486 0.831025 0.0178641 -0.198022
17 1.0 1.0 1.0 -0.479072 0.834319 0.138203 -0.235161
18 1.0 1.0 1.0 -0.594436 0.746393 0.200194 -0.222408
19 1.0 1.0 1.0 -0.63846 0.697371 0.301094 -0.12404
20 1.0 1.0 1.0 -0.683438 0.635617 0.355073 -0.0531652
21 1.0 1.0 1.0 -0.715908 0.538346 0.438105 -0.0756502
22 1.0 1.0 1.0 -0.840066 0.357491 0.397734 -0.091092
23 1.0 1.0 1.0 -0.777074 0.513685 0.3626 -0.0283711
24 1.0 1.0 1.0 -0.843115 0.413126 0.331699 0.0919742
25 1.0 1.0 1.0 -0.8109 0.271449 0.485419 0.182002
26 1.0 1.0 1.0 -0.784061 0.0776437 0.463195 0.405796
27 1.0 1.0 1.0 -0.823308 -0.104281 0.319673 0.457273
28 1.0 1.0 1.0 -0.646186 0.136069 0.155121 0.734756
29 1.0 1.0 1.0 -0.451644 0.0512983 -0.0196033 0.890507
30 1.0 1.0 1.0 -0.350134 0.0713264 0.177859 0.916889
31 1.0 1.0 1.0 -0.273248 0.033572 0.0207196 0.961134
32 1.0 1.0 1.0 -0.0401103 0.056666 -0.0485679 0.996404
33 1.0 1.0 1.0 0.124699 -0.0881129 -0.0303362 0.987809
34 1.0 1.0 1.0 0.0763938 0.186343 -0.0563802 0.977886
35 1.0 1.0 1.0 0.156967 0.0468275 -0.077692 0.983429
36 1.0 1.0 1.0 0.306462 0.0958889 -0.0457523 0.945935
37 1.0 1.0 1.0 0.350748 0.153176 -0.0654378 0.921537
38 1.0 1.0 1.0 0.465919 0.317255 -0.172123 0.807863
39 1.0 1.0 1.0 0.639501 0.315545 -0.00552999 0.701028
40 1.0 1.0 1.0 0.655346 0.251037 0.113409 0.703307
41 1.0 1.0 1.0 0.780847 0.288435 0.0244276 0.553611
42 1.0 1.0 1.0 0.85065 0.292516 0.161887 0.405735
43 1.0 1.0 1.0 0.944655 0.0965564 0.214838 0.228362
44 1.0 1.0 1.0 0.985742 0.0795753 0.122457 0.0835761
45 1.0 1.0 1.0 0.97088 0.151183 0.1032 -0.154553
46 1.0 1.0 1.0 0.974708 0.0229648 0.124821 -0.18395
47 1.0 1.0 1.0 0.937668 0.147731 0.0932746 -0.300424
48 1.0 1.0 1.0 0.926444 -0.0562422 0.235658 -0.288103
49 1.0 1.0 1.0 0.815953 -0.212871 0.159784 -0.513202
50 1.0 1.0 1.0 0.758522 -0.236864 0.236955 -0.55892
51 1.0 1.0 1.0 0.627869 -0.159856 0.383464 -0.658165
52 1.0 1.0 1.0 0.756776 -0.212601 0.256364 -0.562465
53 1.0 1.0 1.0 0.724139 -0.168782 0.308457 -0.593287
54 1.0 1.0 1.0 0.697413 -0.249252 0.360004 -0.567349
55 1.0 1.0 1.0 0.606369 -0.271476 0.452478 -0.594879
56 1.0 1.0 1.0 0.438232 -0.373891 0.540251 -0.613423
57 1.0 1.0 1.0 0.13788 -0.449059 0.449978 -0.75951
58 1.0 1.0 1.0 0.210964 -0.596013 0.420681 -0.650608
59 1.0 1.0 1.0 0.0700476 -0.641944 0.301777 -0.701378
60 1.0 1.0 1.0 -0.0404637 -0.766029 0.349843 -0.537747
61 1.0 1.0 1.0 -0.233933 -0.676909 0.214769 -0.664036
62 1.0 1.0 1.0 -0.313675 -0.545752 0.196142 -0.751859
63 1.0 1.0 1.0 -0.35045 -0.630877 0.206471 -0.660719
64 1.0 1.0 1.0 -0.347259 -0.567053 0.144578 -0.732775
65 1.0 1.0 1.0 -0.478525 -0.550321 0.196963 -0.655261
66 1.0 1.0 1.0 -0.569155 -0.529818 0.0573807 -0.626149
67 1.0 1.0 1.0 -0.763663 -0.421946 -0.0394615 -0.487056
68 1.0 1.0 1.0 -0.703498 -0.412165 -0.203576 -0.542004
69 1.0 1.0 1.0 -0.740359 -0.441088 -0.241683 -0.445981
70 1.0 1.0 1.0 -0.591743 -0.570099 -0.514095 -0.246035
71 1.0 1.0 1.0 -0.639552 -0.513739 -0.571795 0.00985595
72 1.0 1.0 1.0 -0.722029 -0.402192 -0.544442 0.143176
73 1.0 1.0 1.0 -0.558656 -0.402811 -0.639486 0.341621
74 1.0 1.0 1.0 -0.518594 -0.367202 -0.65642 0.406615
75 1.0 1.0 1.0 -0.424648 -0.370014 -0.712381 0.418661
76 1.0 1.0 1.0 -0.215544 -0.344897 -0.833491 0.374005
77 1.0 1.0 1.0 -0.117772 -0.14875 -0.865636 0.463332
78 1.0 1.0 1.0 -0.0579189 -0.165286 -0.941414 0.28821
79 1.0 1.0 1.0 -0.0326352 -0.142662 -0.949046 0.279097
80 1.0 1.0 1.0 0.0845735 0.0282287 -0.967576 0.236319
81 1.0 1.0 1.0 0.20017 0.0713274 -0.958796 0.188557
82 1.0 1.0 1.0 0.103353 0.234561 -0.944842 0.203897
83 1.0 1.0 1.0 0.121716 0.313403 -0.937242 0.0924164
84 1.0 1.0 1.0 0.14215 0.435062 -0.885312 0.0820787
85 1.0 1.0 1.0 -0.107015 0.588165 -0.801155 0.0275718
86 1.0 1.0 1.0 0.084115 0.643533 -0.730242 -0.213393
87 1.0 1.0 1.0 0.0763751 0.722942 -0.602708 -0.329036
88 1.0 1.0 1.0 0.258099 0.771733 -0.508816 -0.280926
89 1.0 1.0 1.0 0.00498667 0.92421 -0.341774 -0.170299