 LAMMPS data file for gas of spheres

 220 atoms
 199 bonds
 198 angles

 2 atom types
 1 bond types
 1 angle types

 -25 25 xlo xhi
 -25 25 ylo yhi
 -25 25 zlo zhi


 Masses

 1 1
 2 1

 Atoms

1 1 1 0 0 0 0 0 0
2 1 1 0.859714 -0.361903 0.859714 0 0 0
3 1 1 0.860755 -0.374148 0.860755 0 0 0
4 1 1 0.915139 -0.224116 0.915139 0 0 0
5 1 1 1.41426 -0.166144 1.41426 0 0 0
6 1 1 0.741479 -0.36752 0.741479 0 0 0
7 1 1 1.73054 -0.437764 1.73054 0 0 0
8 1 1 2.5158 -0.664059 2.5158 0 0 0
9 1 1 2.96972 0.223502 2.96972 0 0 0
10 1 1 3.65969 0.112234 3.65969 0 0 0
11 1 1 3.67249 0.0944792 3.67249 0 0 0
12 1 1 3.89714 -0.229158 3.89714 0 0 0
13 1 1 4.27405 -1.03445 4.27405 0 0 0
14 1 1 5.04761 -0.73367 5.04761 0 0 0
15 1 1 5.52169 0.0821724 5.52169 0 0 0
16 1 1 5.48965 1.03576 5.48965 0 0 0
17 1 1 6.43026 0.913413 6.43026 0 0 0
18 1 1 5.96868 1.24286 5.96868 0 0 0
19 1 1 6.42613 1.80235 6.42613 0 0 0
20 1 1 7.2339 1.29315 7.2339 0 0 0
21 1 1 6.95633 1.68461 6.95633 0 0 0
22 1 1 6.65439 0.740952 6.65439 0 0 0
23 1 1 7.15648 1.45333 7.15648 0 0 0
24 1 1 7.49047 0.63679 7.49047 0 0 0
25 1 1 6.76849 1.09664 6.76849 0 0 0
26 1 1 6.5034 1.65925 6.5034 0 0 0
27 1 1 6.10398 1.05162 6.10398 0 0 0
28 1 1 6.52689 0.784946 6.52689 0 0 0
29 1 1 7.13825 -0.00314236 7.13825 0 0 0
30 1 1 7.20364 -0.0730539 7.20364 0 0 0
31 1 1 7.14269 -0.100007 7.14269 0 0 0
32 1 1 6.80883 0.0872203 6.80883 0 0 0
33 1 1 6.40459 0.990621 6.40459 0 0 0
34 1 1 6.27595 1.51078 6.27595 0 0 0
35 1 1 5.4196 2.01004 5.4196 0 0 0
36 1 1 4.98586 1.61686 4.98586 0 0 0
37 1 1 4.60942 1.05661 4.60942 0 0 0
38 1 1 5.28641 1.55523 5.28641 0 0 0
39 1 1 5.84579 1.46292 5.84579 0 0 0
40 1 1 6.02442 1.66598 6.02442 0 0 0
41 1 1 5.73119 0.779203 5.73119 0 0 0
42 1 1 5.11389 0.00505515 5.11389 0 0 0
43 1 1 4.46507 -0.619047 4.46507 0 0 0
44 1 1 4.96026 -1.47168 4.96026 0 0 0
45 1 1 3.97311 -1.61412 3.97311 0 0 0
46 1 1 3.17052 -1.60477 3.17052 0 0 0
47 1 1 3.30124 -1.84808 3.30124 0 0 0
48 1 1 3.13006 -2.04166 3.13006 0 0 0
49 1 1 3.09352 -2.48128 3.09352 0 0 0
50 1 1 2.90352 -2.62543 2.90352 0 0 0
51 1 1 3.23532 -2.30424 3.23532 0 0 0
52 1 1 3.78896 -2.62257 3.78896 0 0 0
53 1 1 3.16593 -2.77594 3.16593 0 0 0
54 1 1 3.11757 -2.80511 3.11757 0 0 0
55 1 1 4.02387 -3.22595 4.02387 0 0 0
56 1 1 4.63345 -3.6921 4.63345 0 0 0
57 1 1 5.04077 -2.86967 5.04077 0 0 0
58 1 1 6.02978 -2.95309 6.02978 0 0 0
59 1 1 6.5242 -2.62927 6.5242 0 0 0
60 1 1 6.4384 -2.10129 6.4384 0 0 0
61 1 1 5.51347 -2.2405 5.51347 0 0 0
62 1 1 5.32821 -2.86599 5.32821 0 0 0
63 1 1 5.00212 -3.69858 5.00212 0 0 0
64 1 1 4.12753 -3.68572 4.12753 0 0 0
65 1 1 4.05246 -2.71452 4.05246 0 0 0
66 1 1 3.77932 -2.86509 3.77932 0 0 0
67 1 1 3.37341 -2.02268 3.37341 0 0 0
68 1 1 3.89347 -1.1686 3.89347 0 0 0
69 1 1 3.46927 -1.20901 3.46927 0 0 0
70 1 1 2.9769 -0.699429 2.9769 0 0 0
71 1 1 2.00774 -0.520164 2.00774 0 0 0
72 1 1 2.67109 -0.177355 2.67109 0 0 0
73 1 1 2.98623 -1.01424 2.98623 0 0 0
74 1 1 2.80202 -0.949784 2.80202 0 0 0
75 1 1 3.03195 -1.15802 3.03195 0 0 0
76 1 1 2.26885 -1.22868 2.26885 0 0 0
77 1 1 1.31187 -1.20373 1.31187 0 0 0
78 1 1 1.34728 -1.83741 1.34728 0 0 0
79 1 1 0.830534 -2.03377 0.830534 0 0 0
80 1 1 0.285837 -2.50691 0.285837 0 0 0
81 1 1 -0.0490763 -2.08889 -0.0490763 0 0 0
82 1 1 0.111438 -1.53939 0.111438 0 0 0
83 1 1 -0.194351 -2.32826 -0.194351 0 0 0
84 1 1 -1.08212 -2.54936 -1.08212 0 0 0
85 1 1 -0.63454 -2.1444 -0.63454 0 0 0
86 1 1 -0.793468 -2.3696 -0.793468 0 0 0
87 1 1 -0.380944 -1.50046 -0.380944 0 0 0
88 1 1 -0.313022 -0.749489 -0.313022 0 0 0
89 1 1 -0.302545 -0.789634 -0.302545 0 0 0
90 1 1 0.33301 -1.34014 0.33301 0 0 0
91 1 1 -0.3716 -0.855673 -0.3716 0 0 0
92 1 1 0.462314 -0.396221 0.462314 0 0 0
93 1 1 0.236961 -0.60772 0.236961 0 0 0
94 1 1 0.651697 -0.357405 0.651697 0 0 0
95 1 1 1.08885 -0.0580123 1.08885 0 0 0
96 1 1 1.89732 -0.0690701 1.89732 0 0 0
97 1 1 2.67609 -0.678937 2.67609 0 0 0
98 1 1 3.07735 -0.240478 3.07735 0 0 0
99 1 1 2.2057 -0.652713 2.2057 0 0 0
100 1 1 2.42813 -1.48273 2.42813 0 0 0
101 1 1 1.7044 -1.89257 1.7044 0 0 0
102 1 1 1.54855 -0.920496 1.54855 0 0 0
103 1 1 1.86929 -0.31958 1.86929 0 0 0
104 1 1 1.85841 -1.31893 1.85841 0 0 0
105 1 1 1.89949 -1.20913 1.89949 0 0 0
106 1 1 1.30121 -1.89726 1.30121 0 0 0
107 1 1 2.23104 -1.68482 2.23104 0 0 0
108 1 1 1.45318 -1.67083 1.45318 0 0 0
109 1 1 0.623159 -1.97128 0.623159 0 0 0
110 1 1 1.10666 -2.80727 1.10666 0 0 0
111 1 1 0.919022 -1.93748 0.919022 0 0 0
112 1 1 1.3206 -1.63031 1.3206 0 0 0
113 1 1 1.83935 -1.51822 1.83935 0 0 0
114 1 1 1.89651 -2.19107 1.89651 0 0 0
115 1 1 2.68588 -2.71409 2.68588 0 0 0
116 1 1 2.43172 -1.76243 2.43172 0 0 0
117 1 1 3.43109 -1.76856 3.43109 0 0 0
118 1 1 3.42894 -0.790523 3.42894 0 0 0
119 1 1 3.88076 -0.550272 3.88076 0 0 0
120 1 1 3.88366 -0.547039 3.88366 0 0 0
121 1 1 3.38043 -1.10553 3.38043 0 0 0
122 1 1 3.82737 -1.59395 3.82737 0 0 0
123 1 1 2.96844 -1.51783 2.96844 0 0 0
124 1 1 2.55601 -0.704965 2.55601 0 0 0
125 1 1 2.67845 -0.745901 2.67845 0 0 0
126 1 1 2.50869 -1.19139 2.50869 0 0 0
127 1 1 3.17432 -1.23555 3.17432 0 0 0
128 1 1 2.66836 -0.916872 2.66836 0 0 0
129 1 1 2.74011 -0.902271 2.74011 0 0 0
130 1 1 2.37831 -1.27563 2.37831 0 0 0
131 1 1 2.3534 -1.46502 2.3534 0 0 0
132 1 1 2.12731 -1.3546 2.12731 0 0 0
133 1 1 1.37647 -1.28778 1.37647 0 0 0
134 1 1 2.05971 -1.7894 2.05971 0 0 0
135 1 1 1.62391 -2.66724 1.62391 0 0 0
136 1 1 1.67597 -2.75596 1.67597 0 0 0
137 1 1 1.94378 -3.53837 1.94378 0 0 0
138 1 1 2.74132 -3.6444 2.74132 0 0 0
139 1 1 3.45872 -3.32056 3.45872 0 0 0
140 1 1 3.06738 -2.60477 3.06738 0 0 0
141 1 1 3.01818 -2.59276 3.01818 0 0 0
142 1 1 3.01878 -2.52468 3.01878 0 0 0
143 1 1 3.42645 -3.42502 3.42645 0 0 0
144 1 1 2.55993 -3.28588 2.55993 0 0 0
145 1 1 2.78704 -3.6802 2.78704 0 0 0
146 1 1 2.86251 -3.98651 2.86251 0 0 0
147 1 1 3.83469 -3.85624 3.83469 0 0 0
148 1 1 3.67631 -3.24851 3.67631 0 0 0
149 1 1 4.46312 -3.8653 4.46312 0 0 0
150 1 1 4.9701 -3.62389 4.9701 0 0 0
151 1 1 5.13729 -2.663 5.13729 0 0 0
152 1 1 5.35222 -2.86284 5.35222 0 0 0
153 1 1 5.29085 -2.91207 5.29085 0 0 0
154 1 1 5.12518 -2.51907 5.12518 0 0 0
155 1 1 5.56632 -1.78954 5.56632 0 0 0
156 1 1 5.24109 -2.62938 5.24109 0 0 0
157 1 1 4.77003 -3.4237 4.77003 0 0 0
158 1 1 4.93667 -3.3366 4.93667 0 0 0
159 1 1 4.12493 -3.91803 4.12493 0 0 0
160 1 1 3.63806 -3.05943 3.63806 0 0 0
161 1 1 3.08099 -3.86246 3.08099 0 0 0
162 1 1 3.45048 -3.87534 3.45048 0 0 0
163 1 1 3.00844 -3.14561 3.00844 0 0 0
164 1 1 3.33298 -2.4358 3.33298 0 0 0
165 1 1 2.67792 -2.33125 2.67792 0 0 0
166 1 1 2.9054 -3.00655 2.9054 0 0 0
167 1 1 3.35151 -2.32591 3.35151 0 0 0
168 1 1 3.20688 -3.15347 3.20688 0 0 0
169 1 1 2.55799 -3.32988 2.55799 0 0 0
170 1 1 2.45311 -3.2886 2.45311 0 0 0
171 1 1 2.10898 -4.009 2.10898 0 0 0
172 1 1 1.91333 -3.6584 1.91333 0 0 0
173 1 1 2.70839 -3.2763 2.70839 0 0 0
174 1 1 3.15067 -4.12635 3.15067 0 0 0
175 1 1 3.98262 -4.34569 3.98262 0 0 0
176 1 1 4.36479 -4.05942 4.36479 0 0 0
177 1 1 4.19478 -3.1367 4.19478 0 0 0
178 1 1 4.1256 -2.84545 4.1256 0 0 0
179 1 1 3.43705 -2.21336 3.43705 0 0 0
180 1 1 4.00443 -3.031 4.00443 0 0 0
181 1 1 3.92646 -3.45936 3.92646 0 0 0
182 1 1 3.08392 -3.75673 3.08392 0 0 0
183 1 1 2.90363 -3.43245 2.90363 0 0 0
184 1 1 2.4329 -4.03343 2.4329 0 0 0
185 1 1 2.28444 -3.67447 2.28444 0 0 0
186 1 1 2.05335 -3.79907 2.05335 0 0 0
187 1 1 2.059 -3.77294 2.059 0 0 0
188 1 1 1.91598 -3.53238 1.91598 0 0 0
189 1 1 1.59349 -2.81661 1.59349 0 0 0
190 1 1 2.06282 -2.94469 2.06282 0 0 0
191 1 1 1.73711 -2.25454 1.73711 0 0 0
192 1 1 1.88039 -2.37492 1.88039 0 0 0
193 1 1 2.40701 -1.58202 2.40701 0 0 0
194 1 1 2.52198 -1.06982 2.52198 0 0 0
195 1 1 1.91246 -1.85336 1.91246 0 0 0
196 1 1 1.7609 -1.73595 1.7609 0 0 0
197 1 1 1.53204 -2.61964 1.53204 0 0 0
198 1 1 1.53691 -2.4605 1.53691 0 0 0
199 1 1 1.55628 -2.33532 1.55628 0 0 0
200 1 1 1.84772 -2.51156 1.84772 0 0 0
201 2 2 1.89904 23.6969 1.89904 0 0 0
202 3 2 1.47349 -15.4996 1.47349 0 0 0
203 4 2 18.242 -1.13105 18.242 0 0 0
204 5 2 -23.6718 -3.25114 -23.6718 0 0 0
205 6 2 -7.66286 -0.255213 -7.66286 0 0 0
206 7 2 22.296 7.57936 22.296 0 0 0
207 8 2 -16.9612 -15.4961 -16.9612 0 0 0
208 9 2 -13.8909 4.25894 -13.8909 0 0 0
209 10 2 21.5925 1.71404 21.5925 0 0 0
210 11 2 23.6139 12.9923 23.6139 0 0 0
211 12 2 19.2859 -10.1087 19.2859 0 0 0
212 13 2 -6.10717 16.3648 -6.10717 0 0 0
213 14 2 13.9853 9.60677 13.9853 0 0 0
214 15 2 -0.0535267 10.935 -0.0535267 0 0 0
215 16 2 -0.275128 -21.7279 -0.275128 0 0 0
216 17 2 -6.05714 -24.4319 -6.05714 0 0 0
217 18 2 -3.04359 -16.3931 -3.04359 0 0 0
218 19 2 -17.7912 -5.28394 -17.7912 0 0 0
219 20 2 -14.2326 -8.69144 -14.2326 0 0 0
220 21 2 1.58221 -10.0775 1.58221 0 0 0

 Velocities

 1 0 0 0
 2 0 0 0
 3 0 0 0
 4 0 0 0
 5 0 0 0
 6 0 0 0
 7 0 0 0
 8 0 0 0
 9 0 0 0
 10 0 0 0
 11 0 0 0
 12 0 0 0
 13 0 0 0
 14 0 0 0
 15 0 0 0
 16 0 0 0
 17 0 0 0
 18 0 0 0
 19 0 0 0
 20 0 0 0
 21 0 0 0
 22 0 0 0
 23 0 0 0
 24 0 0 0
 25 0 0 0
 26 0 0 0
 27 0 0 0
 28 0 0 0
 29 0 0 0
 30 0 0 0
 31 0 0 0
 32 0 0 0
 33 0 0 0
 34 0 0 0
 35 0 0 0
 36 0 0 0
 37 0 0 0
 38 0 0 0
 39 0 0 0
 40 0 0 0
 41 0 0 0
 42 0 0 0
 43 0 0 0
 44 0 0 0
 45 0 0 0
 46 0 0 0
 47 0 0 0
 48 0 0 0
 49 0 0 0
 50 0 0 0
 51 0 0 0
 52 0 0 0
 53 0 0 0
 54 0 0 0
 55 0 0 0
 56 0 0 0
 57 0 0 0
 58 0 0 0
 59 0 0 0
 60 0 0 0
 61 0 0 0
 62 0 0 0
 63 0 0 0
 64 0 0 0
 65 0 0 0
 66 0 0 0
 67 0 0 0
 68 0 0 0
 69 0 0 0
 70 0 0 0
 71 0 0 0
 72 0 0 0
 73 0 0 0
 74 0 0 0
 75 0 0 0
 76 0 0 0
 77 0 0 0
 78 0 0 0
 79 0 0 0
 80 0 0 0
 81 0 0 0
 82 0 0 0
 83 0 0 0
 84 0 0 0
 85 0 0 0
 86 0 0 0
 87 0 0 0
 88 0 0 0
 89 0 0 0
 90 0 0 0
 91 0 0 0
 92 0 0 0
 93 0 0 0
 94 0 0 0
 95 0 0 0
 96 0 0 0
 97 0 0 0
 98 0 0 0
 99 0 0 0
 100 0 0 0
 101 0 0 0
 102 0 0 0
 103 0 0 0
 104 0 0 0
 105 0 0 0
 106 0 0 0
 107 0 0 0
 108 0 0 0
 109 0 0 0
 110 0 0 0
 111 0 0 0
 112 0 0 0
 113 0 0 0
 114 0 0 0
 115 0 0 0
 116 0 0 0
 117 0 0 0
 118 0 0 0
 119 0 0 0
 120 0 0 0
 121 0 0 0
 122 0 0 0
 123 0 0 0
 124 0 0 0
 125 0 0 0
 126 0 0 0
 127 0 0 0
 128 0 0 0
 129 0 0 0
 130 0 0 0
 131 0 0 0
 132 0 0 0
 133 0 0 0
 134 0 0 0
 135 0 0 0
 136 0 0 0
 137 0 0 0
 138 0 0 0
 139 0 0 0
 140 0 0 0
 141 0 0 0
 142 0 0 0
 143 0 0 0
 144 0 0 0
 145 0 0 0
 146 0 0 0
 147 0 0 0
 148 0 0 0
 149 0 0 0
 150 0 0 0
 151 0 0 0
 152 0 0 0
 153 0 0 0
 154 0 0 0
 155 0 0 0
 156 0 0 0
 157 0 0 0
 158 0 0 0
 159 0 0 0
 160 0 0 0
 161 0 0 0
 162 0 0 0
 163 0 0 0
 164 0 0 0
 165 0 0 0
 166 0 0 0
 167 0 0 0
 168 0 0 0
 169 0 0 0
 170 0 0 0
 171 0 0 0
 172 0 0 0
 173 0 0 0
 174 0 0 0
 175 0 0 0
 176 0 0 0
 177 0 0 0
 178 0 0 0
 179 0 0 0
 180 0 0 0
 181 0 0 0
 182 0 0 0
 183 0 0 0
 184 0 0 0
 185 0 0 0
 186 0 0 0
 187 0 0 0
 188 0 0 0
 189 0 0 0
 190 0 0 0
 191 0 0 0
 192 0 0 0
 193 0 0 0
 194 0 0 0
 195 0 0 0
 196 0 0 0
 197 0 0 0
 198 0 0 0
 199 0 0 0
 200 0 0 0
 201 0 0 0
 202 0 0 0
 203 0 0 0
 204 0 0 0
 205 0 0 0
 206 0 0 0
 207 0 0 0
 208 0 0 0
 209 0 0 0
 210 0 0 0
 211 0 0 0
 212 0 0 0
 213 0 0 0
 214 0 0 0
 215 0 0 0
 216 0 0 0
 217 0 0 0
 218 0 0 0
 219 0 0 0
 220 0 0 0

 Bonds

 1 1 1 2
 2 1 2 3
 3 1 3 4
 4 1 4 5
 5 1 5 6
 6 1 6 7
 7 1 7 8
 8 1 8 9
 9 1 9 10
 10 1 10 11
 11 1 11 12
 12 1 12 13
 13 1 13 14
 14 1 14 15
 15 1 15 16
 16 1 16 17
 17 1 17 18
 18 1 18 19
 19 1 19 20
 20 1 20 21
 21 1 21 22
 22 1 22 23
 23 1 23 24
 24 1 24 25
 25 1 25 26
 26 1 26 27
 27 1 27 28
 28 1 28 29
 29 1 29 30
 30 1 30 31
 31 1 31 32
 32 1 32 33
 33 1 33 34
 34 1 34 35
 35 1 35 36
 36 1 36 37
 37 1 37 38
 38 1 38 39
 39 1 39 40
 40 1 40 41
 41 1 41 42
 42 1 42 43
 43 1 43 44
 44 1 44 45
 45 1 45 46
 46 1 46 47
 47 1 47 48
 48 1 48 49
 49 1 49 50
 50 1 50 51
 51 1 51 52
 52 1 52 53
 53 1 53 54
 54 1 54 55
 55 1 55 56
 56 1 56 57
 57 1 57 58
 58 1 58 59
 59 1 59 60
 60 1 60 61
 61 1 61 62
 62 1 62 63
 63 1 63 64
 64 1 64 65
 65 1 65 66
 66 1 66 67
 67 1 67 68
 68 1 68 69
 69 1 69 70
 70 1 70 71
 71 1 71 72
 72 1 72 73
 73 1 73 74
 74 1 74 75
 75 1 75 76
 76 1 76 77
 77 1 77 78
 78 1 78 79
 79 1 79 80
 80 1 80 81
 81 1 81 82
 82 1 82 83
 83 1 83 84
 84 1 84 85
 85 1 85 86
 86 1 86 87
 87 1 87 88
 88 1 88 89
 89 1 89 90
 90 1 90 91
 91 1 91 92
 92 1 92 93
 93 1 93 94
 94 1 94 95
 95 1 95 96
 96 1 96 97
 97 1 97 98
 98 1 98 99
 99 1 99 100
 100 1 100 101
 101 1 101 102
 102 1 102 103
 103 1 103 104
 104 1 104 105
 105 1 105 106
 106 1 106 107
 107 1 107 108
 108 1 108 109
 109 1 109 110
 110 1 110 111
 111 1 111 112
 112 1 112 113
 113 1 113 114
 114 1 114 115
 115 1 115 116
 116 1 116 117
 117 1 117 118
 118 1 118 119
 119 1 119 120
 120 1 120 121
 121 1 121 122
 122 1 122 123
 123 1 123 124
 124 1 124 125
 125 1 125 126
 126 1 126 127
 127 1 127 128
 128 1 128 129
 129 1 129 130
 130 1 130 131
 131 1 131 132
 132 1 132 133
 133 1 133 134
 134 1 134 135
 135 1 135 136
 136 1 136 137
 137 1 137 138
 138 1 138 139
 139 1 139 140
 140 1 140 141
 141 1 141 142
 142 1 142 143
 143 1 143 144
 144 1 144 145
 145 1 145 146
 146 1 146 147
 147 1 147 148
 148 1 148 149
 149 1 149 150
 150 1 150 151
 151 1 151 152
 152 1 152 153
 153 1 153 154
 154 1 154 155
 155 1 155 156
 156 1 156 157
 157 1 157 158
 158 1 158 159
 159 1 159 160
 160 1 160 161
 161 1 161 162
 162 1 162 163
 163 1 163 164
 164 1 164 165
 165 1 165 166
 166 1 166 167
 167 1 167 168
 168 1 168 169
 169 1 169 170
 170 1 170 171
 171 1 171 172
 172 1 172 173
 173 1 173 174
 174 1 174 175
 175 1 175 176
 176 1 176 177
 177 1 177 178
 178 1 178 179
 179 1 179 180
 180 1 180 181
 181 1 181 182
 182 1 182 183
 183 1 183 184
 184 1 184 185
 185 1 185 186
 186 1 186 187
 187 1 187 188
 188 1 188 189
 189 1 189 190
 190 1 190 191
 191 1 191 192
 192 1 192 193
 193 1 193 194
 194 1 194 195
 195 1 195 196
 196 1 196 197
 197 1 197 198
 198 1 198 199
 199 1 199 200

 Angles

 1 1 1 2 3
 2 1 2 3 4
 3 1 3 4 5
 4 1 4 5 6
 5 1 5 6 7
 6 1 6 7 8
 7 1 7 8 9
 8 1 8 9 10
 9 1 9 10 11
 10 1 10 11 12
 11 1 11 12 13
 12 1 12 13 14
 13 1 13 14 15
 14 1 14 15 16
 15 1 15 16 17
 16 1 16 17 18
 17 1 17 18 19
 18 1 18 19 20
 19 1 19 20 21
 20 1 20 21 22
 21 1 21 22 23
 22 1 22 23 24
 23 1 23 24 25
 24 1 24 25 26
 25 1 25 26 27
 26 1 26 27 28
 27 1 27 28 29
 28 1 28 29 30
 29 1 29 30 31
 30 1 30 31 32
 31 1 31 32 33
 32 1 32 33 34
 33 1 33 34 35
 34 1 34 35 36
 35 1 35 36 37
 36 1 36 37 38
 37 1 37 38 39
 38 1 38 39 40
 39 1 39 40 41
 40 1 40 41 42
 41 1 41 42 43
 42 1 42 43 44
 43 1 43 44 45
 44 1 44 45 46
 45 1 45 46 47
 46 1 46 47 48
 47 1 47 48 49
 48 1 48 49 50
 49 1 49 50 51
 50 1 50 51 52
 51 1 51 52 53
 52 1 52 53 54
 53 1 53 54 55
 54 1 54 55 56
 55 1 55 56 57
 56 1 56 57 58
 57 1 57 58 59
 58 1 58 59 60
 59 1 59 60 61
 60 1 60 61 62
 61 1 61 62 63
 62 1 62 63 64
 63 1 63 64 65
 64 1 64 65 66
 65 1 65 66 67
 66 1 66 67 68
 67 1 67 68 69
 68 1 68 69 70
 69 1 69 70 71
 70 1 70 71 72
 71 1 71 72 73
 72 1 72 73 74
 73 1 73 74 75
 74 1 74 75 76
 75 1 75 76 77
 76 1 76 77 78
 77 1 77 78 79
 78 1 78 79 80
 79 1 79 80 81
 80 1 80 81 82
 81 1 81 82 83
 82 1 82 83 84
 83 1 83 84 85
 84 1 84 85 86
 85 1 85 86 87
 86 1 86 87 88
 87 1 87 88 89
 88 1 88 89 90
 89 1 89 90 91
 90 1 90 91 92
 91 1 91 92 93
 92 1 92 93 94
 93 1 93 94 95
 94 1 94 95 96
 95 1 95 96 97
 96 1 96 97 98
 97 1 97 98 99
 98 1 98 99 100
 99 1 99 100 101
 100 1 100 101 102
 101 1 101 102 103
 102 1 102 103 104
 103 1 103 104 105
 104 1 104 105 106
 105 1 105 106 107
 106 1 106 107 108
 107 1 107 108 109
 108 1 108 109 110
 109 1 109 110 111
 110 1 110 111 112
 111 1 111 112 113
 112 1 112 113 114
 113 1 113 114 115
 114 1 114 115 116
 115 1 115 116 117
 116 1 116 117 118
 117 1 117 118 119
 118 1 118 119 120
 119 1 119 120 121
 120 1 120 121 122
 121 1 121 122 123
 122 1 122 123 124
 123 1 123 124 125
 124 1 124 125 126
 125 1 125 126 127
 126 1 126 127 128
 127 1 127 128 129
 128 1 128 129 130
 129 1 129 130 131
 130 1 130 131 132
 131 1 131 132 133
 132 1 132 133 134
 133 1 133 134 135
 134 1 134 135 136
 135 1 135 136 137
 136 1 136 137 138
 137 1 137 138 139
 138 1 138 139 140
 139 1 139 140 141
 140 1 140 141 142
 141 1 141 142 143
 142 1 142 143 144
 143 1 143 144 145
 144 1 144 145 146
 145 1 145 146 147
 146 1 146 147 148
 147 1 147 148 149
 148 1 148 149 150
 149 1 149 150 151
 150 1 150 151 152
 151 1 151 152 153
 152 1 152 153 154
 153 1 153 154 155
 154 1 154 155 156
 155 1 155 156 157
 156 1 156 157 158
 157 1 157 158 159
 158 1 158 159 160
 159 1 159 160 161
 160 1 160 161 162
 161 1 161 162 163
 162 1 162 163 164
 163 1 163 164 165
 164 1 164 165 166
 165 1 165 166 167
 166 1 166 167 168
 167 1 167 168 169
 168 1 168 169 170
 169 1 169 170 171
 170 1 170 171 172
 171 1 171 172 173
 172 1 172 173 174
 173 1 173 174 175
 174 1 174 175 176
 175 1 175 176 177
 176 1 176 177 178
 177 1 177 178 179
 178 1 178 179 180
 179 1 179 180 181
 180 1 180 181 182
 181 1 181 182 183
 182 1 182 183 184
 183 1 183 184 185
 184 1 184 185 186
 185 1 185 186 187
 186 1 186 187 188
 187 1 187 188 189
 188 1 188 189 190
 189 1 189 190 191
 190 1 190 191 192
 191 1 191 192 193
 192 1 192 193 194
 193 1 193 194 195
 194 1 194 195 196
 195 1 195 196 197
 196 1 196 197 198
 197 1 197 198 199
 198 1 198 199 200
