ITEM: TIMESTEP
0
ITEM: NUMBER OF ATOMS
100
ITEM: BOX BOUNDS pp pp pp
-30 30
-30 30
-30 30
ITEM: ATOMS id type xs ys zs ix iy iz c_quat[1] c_quat[2] c_quat[3] c_quat[4] 
1 1 0.375 0.375 0.5 0 0 0 0.707107 -0.707107 0 0 
100 1 0.4 0.375 0.5 0 0 0 0.5 -0.5 -0.5 0.5 
99 1 0.425 0.375 0.5 0 0 0 0.5 -0.5 -0.5 0.5 
98 1 0.45 0.375 0.5 0 0 0 0.5 -0.5 -0.5 0.5 
97 1 0.475 0.375 0.5 0 0 0 0.5 -0.5 -0.5 0.5 
96 1 0.5 0.375 0.5 0 0 0 0.5 -0.5 -0.5 0.5 
95 1 0.525 0.375 0.5 0 0 0 0.5 -0.5 -0.5 0.5 
94 1 0.55 0.375 0.5 0 0 0 0.5 -0.5 -0.5 0.5 
93 1 0.575 0.375 0.5 0 0 0 0.5 -0.5 -0.5 0.5 
92 1 0.6 0.375 0.5 0 0 0 0.5 -0.5 -0.5 0.5 
2 1 0.375 0.4 0.5 0 0 0 0.707107 -0.707107 0 0 
19 1 0.4 0.4 0.5 0 0 0 0.5 -0.5 0.5 -0.5 
20 1 0.425 0.4 0.5 0 0 0 0.707107 -0.707107 0 0 
37 1 0.45 0.4 0.5 0 0 0 0.5 -0.5 0.5 -0.5 
38 1 0.475 0.4 0.5 0 0 0 0.707107 -0.707107 0 0 
55 1 0.5 0.4 0.5 0 0 0 0.5 -0.5 0.5 -0.5 
56 1 0.525 0.4 0.5 0 0 0 0.707107 -0.707107 0 0 
73 1 0.55 0.4 0.5 0 0 0 0.5 -0.5 0.5 -0.5 
74 1 0.575 0.4 0.5 0 0 0 0.707107 -0.707107 0 0 
91 1 0.6 0.4 0.5 0 0 0 0 0 0.707107 -0.707107 
3 1 0.375 0.425 0.5 0 0 0 0.707107 -0.707107 0 0 
18 1 0.4 0.425 0.5 0 0 0 0 0 0.707107 -0.707107 
21 1 0.425 0.425 0.5 0 0 0 0.707107 -0.707107 0 0 
36 1 0.45 0.425 0.5 0 0 0 0 0 0.707107 -0.707107 
39 1 0.475 0.425 0.5 0 0 0 0.707107 -0.707107 0 0 
54 1 0.5 0.425 0.5 0 0 0 0 0 0.707107 -0.707107 
57 1 0.525 0.425 0.5 0 0 0 0.707107 -0.707107 0 0 
72 1 0.55 0.425 0.5 0 0 0 0 0 0.707107 -0.707107 
75 1 0.575 0.425 0.5 0 0 0 0.707107 -0.707107 0 0 
90 1 0.6 0.425 0.5 0 0 0 0 0 0.707107 -0.707107 
4 1 0.375 0.45 0.5 0 0 0 0.707107 -0.707107 0 0 
17 1 0.4 0.45 0.5 0 0 0 0 0 0.707107 -0.707107 
22 1 0.425 0.45 0.5 0 0 0 0.707107 -0.707107 0 0 
35 1 0.45 0.45 0.5 0 0 0 0 0 0.707107 -0.707107 
40 1 0.475 0.45 0.5 0 0 0 0.707107 -0.707107 0 0 
53 1 0.5 0.45 0.5 0 0 0 0 0 0.707107 -0.707107 
58 1 0.525 0.45 0.5 0 0 0 0.707107 -0.707107 0 0 
71 1 0.55 0.45 0.5 0 0 0 0 0 0.707107 -0.707107 
76 1 0.575 0.45 0.5 0 0 0 0.707107 -0.707107 0 0 
89 1 0.6 0.45 0.5 0 0 0 0 0 0.707107 -0.707107 
5 1 0.375 0.475 0.5 0 0 0 0.707107 -0.707107 0 0 
16 1 0.4 0.475 0.5 0 0 0 0 0 0.707107 -0.707107 
23 1 0.425 0.475 0.5 0 0 0 0.707107 -0.707107 0 0 
34 1 0.45 0.475 0.5 0 0 0 0 0 0.707107 -0.707107 
41 1 0.475 0.475 0.5 0 0 0 0.707107 -0.707107 0 0 
52 1 0.5 0.475 0.5 0 0 0 0 0 0.707107 -0.707107 
59 1 0.525 0.475 0.5 0 0 0 0.707107 -0.707107 0 0 
70 1 0.55 0.475 0.5 0 0 0 0 0 0.707107 -0.707107 
77 1 0.575 0.475 0.5 0 0 0 0.707107 -0.707107 0 0 
88 1 0.6 0.475 0.5 0 0 0 0 0 0.707107 -0.707107 
6 1 0.375 0.5 0.5 0 0 0 0.707107 -0.707107 0 0 
15 1 0.4 0.5 0.5 0 0 0 0 0 0.707107 -0.707107 
24 1 0.425 0.5 0.5 0 0 0 0.707107 -0.707107 0 0 
33 1 0.45 0.5 0.5 0 0 0 0 0 0.707107 -0.707107 
42 1 0.475 0.5 0.5 0 0 0 0.707107 -0.707107 0 0 
51 1 0.5 0.5 0.5 0 0 0 0 0 0.707107 -0.707107 
60 1 0.525 0.5 0.5 0 0 0 0.707107 -0.707107 0 0 
69 1 0.55 0.5 0.5 0 0 0 0 0 0.707107 -0.707107 
78 1 0.575 0.5 0.5 0 0 0 0.707107 -0.707107 0 0 
87 1 0.6 0.5 0.5 0 0 0 0 0 0.707107 -0.707107 
7 1 0.375 0.525 0.5 0 0 0 0.707107 -0.707107 0 0 
14 1 0.4 0.525 0.5 0 0 0 0 0 0.707107 -0.707107 
25 1 0.425 0.525 0.5 0 0 0 0.707107 -0.707107 0 0 
32 1 0.45 0.525 0.5 0 0 0 0 0 0.707107 -0.707107 
43 1 0.475 0.525 0.5 0 0 0 0.707107 -0.707107 0 0 
50 1 0.5 0.525 0.5 0 0 0 0 0 0.707107 -0.707107 
61 1 0.525 0.525 0.5 0 0 0 0.707107 -0.707107 0 0 
68 1 0.55 0.525 0.5 0 0 0 0 0 0.707107 -0.707107 
79 1 0.575 0.525 0.5 0 0 0 0.707107 -0.707107 0 0 
86 1 0.6 0.525 0.5 0 0 0 0 0 0.707107 -0.707107 
8 1 0.375 0.55 0.5 0 0 0 0.707107 -0.707107 0 0 
13 1 0.4 0.55 0.5 0 0 0 0 0 0.707107 -0.707107 
26 1 0.425 0.55 0.5 0 0 0 0.707107 -0.707107 0 0 
31 1 0.45 0.55 0.5 0 0 0 0 0 0.707107 -0.707107 
44 1 0.475 0.55 0.5 0 0 0 0.707107 -0.707107 0 0 
49 1 0.5 0.55 0.5 0 0 0 0 0 0.707107 -0.707107 
62 1 0.525 0.55 0.5 0 0 0 0.707107 -0.707107 0 0 
67 1 0.55 0.55 0.5 0 0 0 0 0 0.707107 -0.707107 
80 1 0.575 0.55 0.5 0 0 0 0.707107 -0.707107 0 0 
85 1 0.6 0.55 0.5 0 0 0 0 0 0.707107 -0.707107 
9 1 0.375 0.575 0.5 0 0 0 0.707107 -0.707107 0 0 
12 1 0.4 0.575 0.5 0 0 0 0 0 0.707107 -0.707107 
27 1 0.425 0.575 0.5 0 0 0 0.707107 -0.707107 0 0 
30 1 0.45 0.575 0.5 0 0 0 0 0 0.707107 -0.707107 
45 1 0.475 0.575 0.5 0 0 0 0.707107 -0.707107 0 0 
48 1 0.5 0.575 0.5 0 0 0 0 0 0.707107 -0.707107 
63 1 0.525 0.575 0.5 0 0 0 0.707107 -0.707107 0 0 
66 1 0.55 0.575 0.5 0 0 0 0 0 0.707107 -0.707107 
81 1 0.575 0.575 0.5 0 0 0 0.707107 -0.707107 0 0 
84 1 0.6 0.575 0.5 0 0 0 0 0 0.707107 -0.707107 
10 1 0.375 0.6 0.5 0 0 0 0.5 -0.5 0.5 -0.5 
11 1 0.4 0.6 0.5 0 0 0 0 0 0.707107 -0.707107 
28 1 0.425 0.6 0.5 0 0 0 0.5 -0.5 0.5 -0.5 
29 1 0.45 0.6 0.5 0 0 0 0 0 0.707107 -0.707107 
46 1 0.475 0.6 0.5 0 0 0 0.5 -0.5 0.5 -0.5 
47 1 0.5 0.6 0.5 0 0 0 0 0 0.707107 -0.707107 
64 1 0.525 0.6 0.5 0 0 0 0.5 -0.5 0.5 -0.5 
65 1 0.55 0.6 0.5 0 0 0 0 0 0.707107 -0.707107 
82 1 0.575 0.6 0.5 0 0 0 0.5 -0.5 0.5 -0.5 
83 1 0.6 0.6 0.5 0 0 0 0 0 0.707107 -0.707107 
ITEM: TIMESTEP
1000
ITEM: NUMBER OF ATOMS
100
ITEM: BOX BOUNDS pp pp pp
-30 30
-30 30
-30 30
ITEM: ATOMS id type xs ys zs ix iy iz c_quat[1] c_quat[2] c_quat[3] c_quat[4] 
1 1 0.423842 0.402036 0.500699 0 0 0 0.750125 -0.572144 -0.100736 0.315935 
100 1 0.435601 0.391682 0.490816 0 0 0 0.804496 -0.344467 -0.209908 0.435966 
99 1 0.450521 0.389054 0.481804 0 0 0 0.68098 -0.359548 -0.387165 0.507045 
98 1 0.467201 0.395833 0.47217 0 0 0 0.64697 -0.147482 -0.491758 0.563784 
97 1 0.481192 0.403233 0.473961 0 0 0 0.518243 -0.217423 -0.705941 0.431043 
96 1 0.49821 0.410209 0.480771 0 0 0 0.447525 -0.312733 -0.787144 0.286922 
95 1 0.51486 0.41851 0.481372 0 0 0 0.435577 -0.347567 -0.701834 0.443732 
94 1 0.53523 0.422496 0.480889 0 0 0 0.536392 -0.432166 -0.605792 0.39816 
93 1 0.553647 0.426907 0.481698 0 0 0 0.495652 -0.241926 -0.735078 0.394285 
92 1 0.570223 0.433839 0.479041 0 0 0 0.727085 -0.0663477 -0.539226 0.41974 
2 1 0.41115 0.418344 0.505346 0 0 0 0.590133 -0.695523 -0.083326 0.401307 
19 1 0.410441 0.460619 0.476371 0 0 0 -0.312736 -0.584661 0.0978996 -0.742148 
20 1 0.425131 0.451929 0.484762 0 0 0 -0.114224 -0.617962 -0.253357 -0.735449 
37 1 0.448116 0.437899 0.536174 0 0 0 -0.130265 -0.913218 -0.231054 -0.309318 
38 1 0.462217 0.435777 0.520401 0 0 0 0.0219753 -0.855809 -0.435611 -0.27812 
55 1 0.477914 0.448767 0.531175 0 0 0 0.571785 0.390649 0.706186 -0.147501 
56 1 0.492844 0.441029 0.526456 0 0 0 0.671888 0.299191 0.677405 0.013173 
73 1 0.560587 0.475547 0.439878 0 0 0 0.228503 -0.436991 0.293218 -0.819054 
74 1 0.574908 0.467365 0.448414 0 0 0 0.40504 -0.394662 0.0776251 -0.821072 
91 1 0.587941 0.438449 0.475839 0 0 0 -0.668403 0.0101277 0.640167 -0.378577 
3 1 0.39855 0.435229 0.508895 0 0 0 0.675498 -0.410045 -0.0413509 0.611438 
18 1 0.396031 0.471286 0.47396 0 0 0 -0.24537 -0.64772 0.185197 -0.697105 
21 1 0.443815 0.453804 0.485891 0 0 0 0.0225472 -0.786213 -0.354937 -0.505352 
36 1 0.437344 0.449577 0.542888 0 0 0 -0.464877 -0.799276 0.0123517 -0.380651 
39 1 0.472189 0.4397 0.505731 0 0 0 0.00448097 -0.795516 -0.465489 -0.387884 
54 1 0.469626 0.466333 0.534693 0 0 0 0.56814 0.374713 0.675284 -0.284253 
57 1 0.50925 0.436148 0.525928 0 0 0 0.68379 -0.0161301 0.692673 0.228857 
72 1 0.547224 0.489033 0.441514 0 0 0 0.164455 -0.302012 0.611676 -0.712457 
75 1 0.587796 0.469178 0.462383 0 0 0 0.461984 -0.549778 0.0875498 -0.690398 
90 1 0.607639 0.446079 0.473582 0 0 0 -0.723943 0.0592295 0.563465 -0.393581 
4 1 0.389313 0.445168 0.521884 0 0 0 0.684706 -0.502239 0.0644185 0.524199 
17 1 0.385537 0.488715 0.478343 0 0 0 -0.549101 -0.660897 0.128119 -0.495266 
22 1 0.4567 0.463539 0.476087 0 0 0 0.327061 -0.63588 -0.5276 -0.458614 
35 1 0.434475 0.468686 0.542708 0 0 0 -0.616409 -0.629754 0.340326 -0.328066 
40 1 0.48134 0.446607 0.49219 0 0 0 0.15099 -0.737912 -0.599183 -0.271418 
53 1 0.476355 0.486612 0.533007 0 0 0 0.475876 0.575277 0.291557 -0.59799 
58 1 0.52702 0.440554 0.52905 0 0 0 0.642903 -0.0711074 0.63103 0.428276 
71 1 0.542018 0.504208 0.446663 0 0 0 0.152069 -0.167976 0.74684 -0.625211 
76 1 0.601325 0.476437 0.470212 0 0 0 0.584912 -0.5753 -0.121736 -0.558649 
89 1 0.620484 0.456124 0.474903 0 0 0 -0.510196 0.0407848 0.755948 -0.408141 
5 1 0.380491 0.461793 0.530914 0 0 0 0.680041 -0.439457 0.318735 0.492777 
16 1 0.378464 0.504728 0.478476 0 0 0 -0.574265 -0.656501 0.265266 -0.410926 
23 1 0.457935 0.481254 0.466414 0 0 0 0.485683 -0.369939 -0.640835 -0.46539 
34 1 0.434073 0.484783 0.534736 0 0 0 -0.611295 -0.411894 0.341432 -0.583169 
41 1 0.486516 0.459356 0.477502 0 0 0 0.339675 -0.640923 -0.531516 -0.437412 
52 1 0.481755 0.504585 0.52823 0 0 0 0.551117 0.575038 0.325358 -0.509651 
59 1 0.538787 0.456425 0.53125 0 0 0 0.521476 -0.243221 0.607408 0.547688 
70 1 0.543027 0.522223 0.455701 0 0 0 -0.0884551 -0.1001 0.748446 -0.649604 
77 1 0.611682 0.490737 0.476613 0 0 0 0.663139 -0.483215 -0.330367 -0.466483 
88 1 0.63256 0.468964 0.483027 0 0 0 -0.37181 -0.0493557 0.784411 -0.493984 
6 1 0.374038 0.479853 0.538696 0 0 0 0.610571 -0.612958 0.184368 0.466362 
15 1 0.372875 0.52108 0.476011 0 0 0 -0.550161 -0.611216 0.195361 -0.534389 
24 1 0.451157 0.500113 0.466898 0 0 0 0.510363 -0.43129 -0.523204 -0.528939 
33 1 0.442713 0.496636 0.526889 0 0 0 -0.611483 -0.085705 0.516541 -0.593236 
42 1 0.489401 0.476256 0.468163 0 0 0 0.283052 -0.631999 -0.565163 -0.448385 
51 1 0.487278 0.520508 0.524772 0 0 0 0.620035 0.553125 0.165521 -0.531236 
60 1 0.540468 0.473653 0.532828 0 0 0 0.313279 -0.310254 0.439587 0.782536 
69 1 0.545086 0.540066 0.465107 0 0 0 -0.154771 -0.0505404 0.856554 -0.4897 
78 1 0.610442 0.50841 0.485156 0 0 0 0.587105 -0.464563 -0.493502 -0.442656 
87 1 0.642726 0.477736 0.493414 0 0 0 -0.301035 -0.0305801 0.919377 -0.251372 
7 1 0.366142 0.497398 0.540533 0 0 0 0.512645 -0.763533 0.254862 0.298762 
14 1 0.364762 0.539352 0.479833 0 0 0 -0.433205 -0.724477 0.313343 -0.435067 
25 1 0.449373 0.516668 0.467761 0 0 0 0.54417 -0.278696 -0.599807 -0.516178 
32 1 0.453815 0.509586 0.523706 0 0 0 -0.483121 -0.0733044 0.62421 -0.609576 
43 1 0.493319 0.491485 0.460637 0 0 0 0.433547 -0.558681 -0.540193 -0.456183 
50 1 0.48611 0.538385 0.522125 0 0 0 0.583769 0.607711 0.405473 -0.35425 
61 1 0.538295 0.49331 0.538009 0 0 0 0.298625 -0.501443 0.307109 0.751706 
68 1 0.541972 0.554287 0.476358 0 0 0 0.110845 -0.0954182 0.885185 -0.441652 
79 1 0.610767 0.525784 0.48749 0 0 0 0.518234 -0.467748 -0.308867 -0.645946 
86 1 0.652892 0.490261 0.49997 0 0 0 -0.28625 -0.142916 0.768372 -0.554293 
8 1 0.360789 0.514912 0.538414 0 0 0 0.616835 -0.69811 0.280009 0.231845 
13 1 0.357516 0.552535 0.488366 0 0 0 -0.265163 -0.772884 0.394906 -0.419986 
26 1 0.443961 0.534555 0.470682 0 0 0 0.420512 -0.471066 -0.346723 -0.693577 
31 1 0.461185 0.526078 0.519809 0 0 0 -0.363694 0.00702587 0.57218 -0.735042 
44 1 0.496134 0.508151 0.455726 0 0 0 0.546878 -0.455739 -0.498341 -0.494856 
49 1 0.488 0.550795 0.507707 0 0 0 0.700337 0.362681 0.165719 -0.592054 
62 1 0.529952 0.508749 0.545475 0 0 0 0.230384 -0.41317 0.633421 0.612365 
67 1 0.538069 0.562683 0.489696 0 0 0 0.117146 -0.224113 0.891062 -0.376906 
80 1 0.612818 0.540442 0.49281 0 0 0 0.483186 -0.507969 -0.169212 -0.692724 
85 1 0.664387 0.507121 0.501699 0 0 0 -0.572383 -0.200023 0.652658 -0.454319 
9 1 0.357427 0.533851 0.534172 0 0 0 0.418119 -0.831097 0.273795 0.243906 
12 1 0.353731 0.564859 0.500443 0 0 0 -0.197574 -0.785873 0.500936 -0.304025 
27 1 0.446872 0.551354 0.474593 0 0 0 0.420333 -0.218274 -0.111058 -0.873695 
30 1 0.465758 0.543503 0.517287 0 0 0 -0.282013 -0.0895731 0.639148 -0.709884 
45 1 0.49767 0.527266 0.458872 0 0 0 0.49205 -0.449936 -0.411853 -0.621146 
48 1 0.485297 0.55935 0.491204 0 0 0 0.827358 0.15254 0.203497 -0.500799 
63 1 0.525577 0.525921 0.546479 0 0 0 0.243101 -0.531028 0.730664 0.353612 
66 1 0.528192 0.562467 0.505728 0 0 0 0.256131 -0.427089 0.858348 -0.123412 
81 1 0.623998 0.552766 0.497311 0 0 0 0.190272 -0.616126 0.144973 -0.750446 
84 1 0.666022 0.525247 0.500346 0 0 0 -0.425953 -0.386928 0.621266 -0.531864 
10 1 0.352097 0.55007 0.526651 0 0 0 0.325809 -0.858846 0.352719 0.178386 
11 1 0.35127 0.561393 0.514826 0 0 0 0.072755 -0.838478 0.537875 -0.0484906 
28 1 0.453182 0.560393 0.490057 0 0 0 0.0824039 -0.350213 0.231231 -0.903932 
29 1 0.462884 0.557045 0.504944 0 0 0 -0.105588 -0.130621 0.414052 -0.894623 
46 1 0.497267 0.544258 0.463381 0 0 0 0.707399 -0.13475 -0.371756 -0.585855 
47 1 0.489691 0.555525 0.474523 0 0 0 0.779315 0.0321822 -0.304571 -0.546688 
64 1 0.525383 0.541766 0.535342 0 0 0 0.175032 -0.575549 0.728632 0.327417 
65 1 0.524053 0.554269 0.519348 0 0 0 0.279638 -0.45693 0.812707 0.229182 
82 1 0.641493 0.551867 0.500835 0 0 0 0.0262209 -0.551137 0.324742 -0.768181 
83 1 0.657043 0.540701 0.501318 0 0 0 -0.273064 -0.585414 0.41766 -0.638973 
ITEM: TIMESTEP
2000
ITEM: NUMBER OF ATOMS
100
ITEM: BOX BOUNDS pp pp pp
-30 30
-30 30
-30 30
ITEM: ATOMS id type xs ys zs ix iy iz c_quat[1] c_quat[2] c_quat[3] c_quat[4] 
73 1 0.550211 0.50828 0.434938 0 0 0 -0.12266 -0.619717 0.0885211 -0.77011 
74 1 0.568483 0.504374 0.438827 0 0 0 0.0970559 -0.575054 -0.0251493 -0.811948 
43 1 0.507442 0.508046 0.450645 0 0 0 0.83837 -0.445998 0.311772 0.0319316 
44 1 0.513692 0.523326 0.457655 0 0 0 0.964188 -0.227996 0.126067 0.0496704 
72 1 0.53917 0.518368 0.42425 0 0 0 -0.0546078 -0.336546 0.126837 -0.931487 
71 1 0.52705 0.532073 0.420339 0 0 0 -0.00316377 -0.409203 0.460848 -0.787504 
45 1 0.517142 0.531667 0.468832 0 0 0 0.956988 -0.28066 -0.0484409 -0.0553012 
70 1 0.521418 0.548682 0.425855 0 0 0 -0.10897 -0.435306 0.661882 -0.600456 
69 1 0.521055 0.55726 0.439073 0 0 0 -0.131645 -0.376866 0.845491 -0.354663 
99 1 0.474296 0.405128 0.511885 0 0 0 0.611045 -0.418576 -0.428029 0.517889 
98 1 0.485747 0.403428 0.499987 0 0 0 0.684053 -0.209663 -0.189809 0.672373 
97 1 0.499785 0.405194 0.489441 0 0 0 0.648034 -0.212869 -0.33568 0.64966 
96 1 0.51631 0.412627 0.479394 0 0 0 0.598236 -0.252497 -0.425959 0.630014 
95 1 0.529899 0.423296 0.473028 0 0 0 0.412348 -0.137423 -0.564978 0.701345 
94 1 0.544144 0.433475 0.474357 0 0 0 0.286828 -0.386079 -0.646823 0.591855 
93 1 0.558835 0.441938 0.472907 0 0 0 0.350405 -0.468722 -0.551659 0.594296 
92 1 0.580267 0.443211 0.47996 0 0 0 0.434849 -0.562126 -0.532575 0.459656 
19 1 0.385104 0.453565 0.453338 0 0 0 -0.741542 -0.299714 -0.408409 -0.439873 
20 1 0.399045 0.451381 0.460486 0 0 0 -0.67271 -0.405533 -0.416551 -0.457701 
21 1 0.414837 0.450678 0.464463 0 0 0 -0.541007 -0.318139 -0.683874 -0.372042 
91 1 0.593158 0.448464 0.491439 0 0 0 -0.205749 0.488174 0.770077 -0.355437 
90 1 0.609492 0.456239 0.498562 0 0 0 -0.386712 0.408551 0.701912 -0.436874 
89 1 0.623052 0.458065 0.507637 0 0 0 -0.30456 0.616006 0.592281 -0.420693 
18 1 0.371739 0.463343 0.443767 0 0 0 -0.693892 -0.484317 -0.272455 -0.45795 
17 1 0.366488 0.479061 0.44074 0 0 0 -0.724527 -0.630389 0.083235 -0.265976 
22 1 0.436174 0.451544 0.465239 0 0 0 -0.603975 -0.0759619 -0.577045 -0.544484 
23 1 0.452025 0.458339 0.467106 0 0 0 -0.689264 0.183296 -0.495908 -0.495371 
41 1 0.492375 0.477581 0.459322 0 0 0 0.584741 -0.699228 0.411155 -0.0105046 
42 1 0.498426 0.492622 0.452346 0 0 0 0.561428 -0.663038 0.493711 0.037798 
75 1 0.584926 0.505938 0.443508 0 0 0 0.298671 -0.445571 -0.108662 -0.836932 
76 1 0.597257 0.512134 0.456031 0 0 0 0.390742 -0.461035 -0.200662 -0.77104 
16 1 0.365792 0.495595 0.444194 0 0 0 -0.601149 -0.713543 0.329891 -0.143693 
24 1 0.465447 0.470337 0.474616 0 0 0 -0.584866 0.207683 -0.516324 -0.590093 
77 1 0.608649 0.526026 0.464467 0 0 0 0.488469 -0.402303 -0.131756 -0.763014 
78 1 0.621379 0.537823 0.473949 0 0 0 0.412416 -0.498171 0.148129 -0.748196 
15 1 0.36531 0.514783 0.445923 0 0 0 -0.655326 -0.716838 0.211078 -0.110169 
25 1 0.474754 0.486274 0.480187 0 0 0 -0.622358 0.2995 -0.598195 -0.406366 
26 1 0.482735 0.502304 0.486811 0 0 0 -0.738921 0.232873 -0.256569 -0.577873 
14 1 0.36518 0.528929 0.454925 0 0 0 -0.494113 -0.862024 0.0926766 -0.0646321 
13 1 0.359266 0.540787 0.468 0 0 0 -0.368542 -0.888872 0.102514 -0.252141 
27 1 0.483917 0.518539 0.499246 0 0 0 -0.716311 0.31284 -0.213554 -0.586024 
46 1 0.519208 0.5414 0.483783 0 0 0 0.987136 -0.0286838 -0.148238 -0.0525952 
47 1 0.516413 0.544423 0.502398 0 0 0 0.966473 0.0128675 -0.244413 -0.0776386 
68 1 0.518879 0.563479 0.454911 0 0 0 -0.0848156 -0.453745 0.879339 -0.116985 
1 1 0.44017 0.415154 0.514355 0 0 0 0.668357 -0.358187 -0.294485 0.581618 
100 1 0.456028 0.408605 0.51568 0 0 0 0.516905 -0.572601 -0.510775 0.379533 
3 1 0.40912 0.429996 0.528515 0 0 0 0.634756 -0.538392 -0.0821691 0.548149 
2 1 0.422489 0.422106 0.520782 0 0 0 0.713637 -0.483406 -0.200692 0.465579 
39 1 0.476899 0.447822 0.472517 0 0 0 0.631166 -0.657897 0.409986 0.0266877 
40 1 0.487012 0.462089 0.466006 0 0 0 0.528174 -0.76499 0.360727 0.0754898 
88 1 0.641419 0.456957 0.515306 0 0 0 -0.287602 0.604001 0.537678 -0.513197 
87 1 0.659922 0.459233 0.52059 0 0 0 -0.394788 0.615789 0.387718 -0.560911 
86 1 0.674161 0.466563 0.526009 0 0 0 -0.331451 0.415867 0.554572 -0.640035 
85 1 0.684069 0.481505 0.520965 0 0 0 -0.181915 0.321398 0.646358 -0.667706 
79 1 0.636684 0.540993 0.479986 0 0 0 0.476071 -0.431521 0.303695 -0.703502 
84 1 0.689957 0.499219 0.517298 0 0 0 0.0342824 0.0682204 0.666685 -0.741418 
28 1 0.478547 0.528815 0.512026 0 0 0 -0.673988 0.493549 0.139366 -0.53172 
30 1 0.450361 0.53344 0.527887 0 0 0 -0.571605 0.0493679 0.481966 -0.662223 
29 1 0.467275 0.535811 0.521911 0 0 0 -0.491361 0.385886 0.482174 -0.614137 
48 1 0.505824 0.54456 0.518328 0 0 0 0.867693 0.220489 -0.445375 -0.0115569 
66 1 0.526521 0.561831 0.490437 0 0 0 -0.0859876 -0.276973 0.943831 0.15835 
67 1 0.522244 0.568128 0.473256 0 0 0 -0.205559 -0.443621 0.868099 -0.0857356 
80 1 0.6546 0.54266 0.487352 0 0 0 0.322053 -0.514752 0.378537 -0.698586 
81 1 0.672469 0.541831 0.490741 0 0 0 0.137625 -0.290135 0.475802 -0.818836 
82 1 0.684821 0.52895 0.500594 0 0 0 0.122475 -0.0966511 0.528224 -0.834649 
83 1 0.688677 0.514285 0.509041 0 0 0 0.189466 -0.060424 0.486197 -0.85092 
12 1 0.349579 0.546844 0.483926 0 0 0 -0.120494 -0.948077 0.0680675 -0.286354 
38 1 0.463255 0.443448 0.483772 0 0 0 0.306586 -0.730829 0.554348 -0.25415 
5 1 0.383691 0.455928 0.533474 0 0 0 0.616889 -0.589264 0.0323985 0.520736 
4 1 0.394986 0.441054 0.531315 0 0 0 0.577503 -0.618154 -0.0758181 0.527853 
37 1 0.450925 0.443243 0.49702 0 0 0 0.187045 -0.665981 0.657646 -0.298304 
55 1 0.468184 0.453595 0.525324 0 0 0 0.893761 0.326354 0.113811 0.285888 
56 1 0.478905 0.447625 0.540811 0 0 0 0.821362 0.201367 0.277898 0.455619 
57 1 0.492268 0.445261 0.555418 0 0 0 0.687238 -0.0423008 0.476559 0.546632 
58 1 0.504564 0.456782 0.564467 0 0 0 0.597729 0.0322588 0.700461 0.388631 
6 1 0.373982 0.470648 0.539027 0 0 0 0.593606 -0.623534 0.103337 0.498156 
54 1 0.460297 0.467656 0.515203 0 0 0 0.881467 0.433586 0.172533 0.0724607 
53 1 0.464725 0.483842 0.515791 0 0 0 0.674217 0.702786 -0.197974 -0.111036 
59 1 0.523551 0.468678 0.562174 0 0 0 0.324365 -0.0635758 0.783077 0.526816 
60 1 0.53284 0.484183 0.557715 0 0 0 0.22816 -0.225152 0.676015 0.663516 
33 1 0.426666 0.487461 0.538341 0 0 0 -0.290886 -0.420382 0.648242 -0.564311 
32 1 0.42644 0.508087 0.537167 0 0 0 -0.31805 -0.330234 0.579469 -0.6738 
52 1 0.467855 0.497207 0.526936 0 0 0 0.454102 0.817015 -0.354073 -0.0301621 
51 1 0.473837 0.513212 0.534777 0 0 0 0.572767 0.788703 -0.20457 0.0896476 
31 1 0.435488 0.522063 0.534813 0 0 0 -0.410389 -0.134846 0.670041 -0.603691 
50 1 0.479953 0.529303 0.535095 0 0 0 0.665187 0.70621 -0.227199 -0.084708 
10 1 0.342919 0.533674 0.519414 0 0 0 0.177122 -0.980968 0.0210248 0.0767295 
11 1 0.34173 0.542395 0.500957 0 0 0 0.0494267 -0.983762 -0.0234188 -0.17094 
49 1 0.491746 0.540703 0.528001 0 0 0 0.863609 0.424181 -0.233776 -0.139992 
65 1 0.529755 0.554968 0.508545 0 0 0 -0.0329394 -0.261461 0.910464 0.31876 
36 1 0.435604 0.448595 0.506516 0 0 0 0.251701 -0.663491 0.544991 -0.446554 
35 1 0.430751 0.456067 0.520665 0 0 0 -0.0418269 -0.668711 0.695792 -0.258746 
34 1 0.426954 0.468474 0.531111 0 0 0 -0.019389 -0.656325 0.675673 -0.335155 
7 1 0.363445 0.484597 0.539622 0 0 0 0.490751 -0.7673 0.15319 0.383336 
61 1 0.53739 0.501194 0.556319 0 0 0 0.174873 -0.110961 0.80756 0.552226 
9 1 0.348842 0.522917 0.530274 0 0 0 0.419466 -0.881441 0.0632922 0.207614 
8 1 0.35727 0.505734 0.535757 0 0 0 0.446167 -0.831757 0.161259 0.288288 
62 1 0.534628 0.516799 0.549371 0 0 0 0.142186 -0.11761 0.837346 0.514589 
63 1 0.536363 0.53406 0.539007 0 0 0 -0.0169765 -0.233671 0.950553 0.20386 
64 1 0.533891 0.544036 0.523878 0 0 0 -0.0670672 -0.191008 0.926551 0.31705 
ITEM: TIMESTEP
3000
ITEM: NUMBER OF ATOMS
100
ITEM: BOX BOUNDS pp pp pp
-30 30
-30 30
-30 30
ITEM: ATOMS id type xs ys zs ix iy iz c_quat[1] c_quat[2] c_quat[3] c_quat[4] 
73 1 0.557408 0.53123 0.410764 0 0 0 0.43148 -0.0718226 0.664588 -0.605796 
72 1 0.542908 0.542242 0.41685 0 0 0 0.337123 -0.0847174 0.805472 -0.479985 
71 1 0.537707 0.55578 0.431763 0 0 0 0.124386 0.0324903 0.923007 -0.362671 
70 1 0.53343 0.565117 0.4472 0 0 0 0.162648 0.0820676 0.944049 -0.274923 
19 1 0.395082 0.449999 0.432325 0 0 0 -0.793831 -0.372815 -0.441286 -0.190021 
20 1 0.411402 0.443263 0.439426 0 0 0 -0.78885 -0.229642 -0.46082 -0.335596 
18 1 0.380342 0.458517 0.427463 0 0 0 -0.823839 -0.393128 -0.399542 -0.0843005 
17 1 0.370047 0.474504 0.423808 0 0 0 -0.799587 -0.480166 -0.36067 -0.00424064 
41 1 0.494935 0.479329 0.488386 0 0 0 0.501275 -0.841874 0.176936 -0.0930831 
16 1 0.364033 0.490152 0.426314 0 0 0 -0.629164 -0.731314 -0.254313 0.0682431 
43 1 0.500859 0.514124 0.479772 0 0 0 0.779482 -0.616538 -0.0199752 -0.109036 
42 1 0.497765 0.496562 0.481344 0 0 0 0.658984 -0.741576 0.0975443 -0.0793121 
74 1 0.570905 0.516693 0.41079 0 0 0 0.556715 -0.408012 0.485258 -0.536768 
75 1 0.590193 0.512895 0.412661 0 0 0 0.615812 -0.519793 0.40098 -0.435667 
15 1 0.36075 0.505621 0.437796 0 0 0 -0.517034 -0.8022 -0.294797 0.0473857 
14 1 0.356983 0.513932 0.449778 0 0 0 -0.435345 -0.858436 -0.270246 -0.0230279 
44 1 0.501646 0.531281 0.485184 0 0 0 0.886669 -0.446015 -0.117979 0.0311407 
76 1 0.606272 0.520382 0.416 0 0 0 0.639018 -0.639264 0.196219 -0.380127 
69 1 0.531348 0.573281 0.463662 0 0 0 0.156496 0.0540128 0.974908 -0.148815 
68 1 0.526626 0.572784 0.480134 0 0 0 0.199991 0.00315929 0.979763 0.00762064 
96 1 0.512941 0.430799 0.472634 0 0 0 0.286394 -0.717969 -0.377855 0.509632 
95 1 0.529705 0.429624 0.476305 0 0 0 0.372799 -0.659503 -0.387962 0.52494 
94 1 0.549046 0.427459 0.479996 0 0 0 0.367998 -0.635285 -0.330169 0.593278 
21 1 0.427313 0.441642 0.447375 0 0 0 -0.740887 -0.0723805 -0.581158 -0.32879 
22 1 0.443653 0.446834 0.453157 0 0 0 -0.64292 0.144228 -0.546962 -0.516416 
23 1 0.457096 0.457577 0.463761 0 0 0 -0.534752 0.244047 -0.627033 -0.511186 
39 1 0.481904 0.452214 0.500912 0 0 0 0.65534 -0.711089 -0.012693 -0.254402 
38 1 0.471243 0.438977 0.503365 0 0 0 0.613462 -0.729733 0.0662212 -0.294564 
93 1 0.568174 0.430425 0.481792 0 0 0 0.244758 -0.580988 -0.4957 0.59735 
92 1 0.582049 0.441663 0.481824 0 0 0 0.134847 -0.526161 -0.413027 0.731013 
24 1 0.465999 0.473543 0.468627 0 0 0 -0.510027 0.274532 -0.553534 -0.598419 
25 1 0.471035 0.490572 0.475935 0 0 0 -0.54253 0.138631 -0.375145 -0.738721 
40 1 0.48916 0.46871 0.49825 0 0 0 0.377708 -0.911424 0.0772092 -0.14381 
26 1 0.470264 0.50563 0.489081 0 0 0 -0.601178 0.265705 -0.318354 -0.683108 
45 1 0.49919 0.544845 0.493035 0 0 0 0.776121 -0.619291 -0.0841776 0.083836 
77 1 0.621731 0.531174 0.417635 0 0 0 0.55518 -0.556646 0.301044 -0.539715 
78 1 0.639455 0.537539 0.421314 0 0 0 0.557915 -0.537092 0.274796 -0.569868 
13 1 0.360542 0.523208 0.465813 0 0 0 -0.215014 -0.961364 -0.0636162 0.159692 
12 1 0.359785 0.5286 0.48171 0 0 0 -0.117013 -0.99192 -0.048647 -0.006071 
46 1 0.493047 0.559176 0.497951 0 0 0 0.871091 -0.392057 -0.257901 0.144838 
79 1 0.654226 0.544151 0.422111 0 0 0 0.180052 -0.530169 0.372977 -0.739858 
80 1 0.668057 0.542363 0.423063 0 0 0 0.0590479 -0.52197 0.26446 -0.808778 
67 1 0.524791 0.56474 0.496593 0 0 0 0.129481 0.0944076 0.969069 0.187691 
99 1 0.460192 0.432169 0.47072 0 0 0 0.437059 -0.365404 -0.370316 0.733707 
98 1 0.477858 0.433105 0.469529 0 0 0 0.286195 -0.57586 -0.431073 0.632973 
97 1 0.495403 0.431705 0.469761 0 0 0 0.338489 -0.652699 -0.304364 0.605617 
37 1 0.457523 0.428157 0.505724 0 0 0 0.548483 -0.674555 0.285147 -0.403526 
36 1 0.441064 0.42692 0.513033 0 0 0 0.372842 -0.644454 0.470828 -0.473275 
91 1 0.595256 0.449007 0.485461 0 0 0 -0.0791355 0.612928 0.494583 -0.611101 
90 1 0.611237 0.459073 0.492603 0 0 0 -0.226772 0.637158 0.443762 -0.587945 
89 1 0.6263 0.46558 0.497241 0 0 0 -0.0345853 0.536274 0.548944 -0.640214 
27 1 0.469363 0.518215 0.503285 0 0 0 -0.672446 0.224597 -0.0675215 -0.702007 
28 1 0.466467 0.526453 0.518219 0 0 0 -0.655911 0.178351 0.224837 -0.698155 
82 1 0.695396 0.527528 0.440756 0 0 0 -0.077789 -0.0342427 0.343692 -0.935228 
83 1 0.697634 0.517008 0.452433 0 0 0 0.00759171 0.0523731 0.135202 -0.989404 
11 1 0.360336 0.523288 0.49948 0 0 0 0.0340178 -0.996212 -0.0451346 -0.0660911 
47 1 0.4813 0.569432 0.507634 0 0 0 0.938172 -0.0577272 -0.168269 0.296962 
66 1 0.527545 0.553855 0.510306 0 0 0 -0.047626 0.0224543 0.978421 0.199802 
65 1 0.534116 0.540525 0.518638 0 0 0 -0.22175 -0.071659 0.846815 0.478118 
81 1 0.683021 0.535605 0.430122 0 0 0 -0.110821 -0.358226 0.213908 -0.902018 
100 1 0.445054 0.428282 0.47686 0 0 0 0.446306 -0.355557 -0.278754 0.772455 
3 1 0.402447 0.422187 0.504115 0 0 0 0.530678 -0.480502 -0.27275 0.642734 
2 1 0.420494 0.424464 0.496756 0 0 0 0.4023 -0.413141 -0.352971 0.736804 
1 1 0.432729 0.426869 0.48642 0 0 0 0.419223 -0.363544 -0.300129 0.775894 
5 1 0.368895 0.435373 0.51491 0 0 0 0.699781 -0.43164 -0.12252 0.555863 
4 1 0.386232 0.428594 0.510574 0 0 0 0.524002 -0.622677 -0.259962 0.519726 
35 1 0.4267 0.433076 0.522578 0 0 0 0.245587 -0.644614 0.585297 -0.426129 
55 1 0.458967 0.479848 0.565908 0 0 0 0.596047 0.714155 0.0373264 0.365125 
88 1 0.64203 0.472117 0.499034 0 0 0 -0.217223 0.590325 0.396464 -0.66869 
87 1 0.660028 0.480738 0.496341 0 0 0 -0.0873042 0.600901 0.387509 -0.693637 
6 1 0.357812 0.445341 0.525393 0 0 0 0.732945 -0.564902 0.166784 0.340383 
34 1 0.419348 0.448595 0.533848 0 0 0 -0.0187691 -0.407288 0.795816 -0.447706 
54 1 0.443907 0.493209 0.564257 0 0 0 0.479553 0.651043 0.0160133 0.588146 
53 1 0.436062 0.509589 0.560787 0 0 0 0.61538 0.585103 -0.180496 0.496371 
86 1 0.674035 0.490986 0.490946 0 0 0 -0.140618 0.418303 0.326744 -0.835756 
85 1 0.689529 0.49985 0.482413 0 0 0 -0.124372 0.50257 0.234217 -0.822859 
8 1 0.349774 0.479058 0.531841 0 0 0 0.612158 -0.77701 0.144279 0.026466 
33 1 0.413594 0.465848 0.542049 0 0 0 -0.0697596 -0.415793 0.738175 -0.526638 
32 1 0.413949 0.484047 0.538423 0 0 0 -0.255526 -0.109879 0.539625 -0.794631 
52 1 0.429935 0.52708 0.55508 0 0 0 0.679359 0.523786 -0.163806 0.487122 
84 1 0.695436 0.508331 0.46931 0 0 0 -0.153112 0.259007 0.302354 -0.904464 
10 1 0.357442 0.512623 0.513259 0 0 0 0.376451 -0.906843 -0.0932901 -0.164974 
9 1 0.35194 0.497089 0.52484 0 0 0 0.431904 -0.89485 0.0935325 -0.0628875 
31 1 0.423586 0.501844 0.536888 0 0 0 -0.380591 -0.0747584 0.677476 -0.624971 
30 1 0.438149 0.514016 0.535551 0 0 0 -0.519587 0.0388897 0.687901 -0.505281 
29 1 0.453564 0.524914 0.531534 0 0 0 -0.663989 0.0707267 0.545629 -0.506365 
51 1 0.440715 0.546648 0.555844 0 0 0 0.587822 0.481871 -0.609631 0.224977 
50 1 0.451951 0.558014 0.548836 0 0 0 0.834709 0.270718 -0.40822 0.251651 
63 1 0.541621 0.507002 0.528513 0 0 0 0.0966818 -0.0138067 0.829673 0.54964 
48 1 0.473576 0.571187 0.523373 0 0 0 0.906797 0.039326 -0.298664 0.294911 
49 1 0.46398 0.564921 0.538859 0 0 0 0.874967 0.14939 -0.414007 0.201775 
64 1 0.540282 0.524375 0.526318 0 0 0 -0.0197326 -0.0380254 0.80672 0.589378 
56 1 0.470635 0.464206 0.566627 0 0 0 0.450419 0.710944 0.161275 0.515434 
57 1 0.480954 0.453545 0.564616 0 0 0 0.461553 0.66438 0.289514 0.511615 
58 1 0.49604 0.444789 0.559675 0 0 0 0.242205 0.523328 0.576077 0.57931 
7 1 0.352443 0.461778 0.531916 0 0 0 0.644781 -0.742831 0.0626929 0.168906 
59 1 0.513342 0.450039 0.553469 0 0 0 0.228987 0.438853 0.682597 0.537619 
60 1 0.527027 0.461481 0.545207 0 0 0 0.146171 0.347698 0.734156 0.564584 
61 1 0.536891 0.473246 0.539575 0 0 0 0.00435001 0.135836 0.792678 0.594299 
62 1 0.53984 0.49045 0.533989 0 0 0 0.125329 0.0598259 0.813599 0.564597 
ITEM: TIMESTEP
4000
ITEM: NUMBER OF ATOMS
100
ITEM: BOX BOUNDS pp pp pp
-30 30
-30 30
-30 30
ITEM: ATOMS id type xs ys zs ix iy iz c_quat[1] c_quat[2] c_quat[3] c_quat[4] 
18 1 0.398514 0.49738 0.422899 0 0 0 -0.263632 -0.784755 -0.212839 -0.518996 
19 1 0.417912 0.494962 0.418061 0 0 0 -0.210599 -0.558502 -0.0943173 -0.796761 
17 1 0.385613 0.501677 0.429464 0 0 0 -0.383763 -0.778747 -0.254788 -0.425866 
16 1 0.372048 0.503396 0.440453 0 0 0 -0.337423 -0.815811 -0.318721 -0.344986 
75 1 0.588731 0.533516 0.380231 0 0 0 0.575327 -0.317015 0.272151 -0.70316 
73 1 0.553325 0.540223 0.38612 0 0 0 0.367511 -0.387649 0.724364 -0.435845 
74 1 0.568862 0.537298 0.379187 0 0 0 0.461807 -0.426815 0.601416 -0.492811 
76 1 0.603235 0.533265 0.39027 0 0 0 0.552866 -0.472275 0.347543 -0.592038 
77 1 0.618862 0.532461 0.401585 0 0 0 0.48141 -0.235274 0.460028 -0.708001 
78 1 0.634105 0.527072 0.408758 0 0 0 0.477471 -0.331505 0.502918 -0.639687 
81 1 0.673353 0.51706 0.44233 0 0 0 0.581201 -0.0648074 -0.0827595 -0.806943 
71 1 0.540731 0.552925 0.417639 0 0 0 -0.0695155 -0.42645 0.863487 -0.26019 
72 1 0.54328 0.544747 0.403909 0 0 0 0.18618 -0.484973 0.833523 -0.188092 
79 1 0.650526 0.520314 0.416322 0 0 0 0.454006 -0.251103 0.468902 -0.714812 
80 1 0.666116 0.515954 0.426053 0 0 0 0.576826 -0.248422 0.175813 -0.758055 
20 1 0.435913 0.494793 0.419094 0 0 0 -0.131897 -0.578685 -0.102486 -0.798263 