ITEM: TIMESTEP
0
ITEM: NUMBER OF ATOMS
100
ITEM: BOX BOUNDS pp pp pp
-30 30
-30 30
-30 30
ITEM: ATOMS id type xs ys zs ix iy iz c_quat[1] c_quat[2] c_quat[3] c_quat[4] 
19 1 0.414422 0.387366 0.274346 0 0 0 0.185405 0.277328 0.911287 0.241392 
20 1 0.425101 0.391888 0.26366 0 0 0 0.430985 0.192452 0.751191 0.46144 
21 1 0.439208 0.397188 0.26075 0 0 0 0.530708 0.309886 0.617457 0.490985 
22 1 0.453566 0.402648 0.258779 0 0 0 0.538313 0.207508 0.444705 0.685125 
23 1 0.467139 0.409386 0.264708 0 0 0 0.587029 0.259823 0.436283 0.630512 
24 1 0.480315 0.414323 0.270103 0 0 0 0.401183 0.332232 0.425399 0.740074 
25 1 0.494549 0.420126 0.275473 0 0 0 0.454046 0.443881 0.22912 0.737778 
26 1 0.509629 0.418845 0.281428 0 0 0 0.378927 0.416009 0.461466 0.685857 
18 1 0.410123 0.381098 0.289372 0 0 0 -0.00969595 0.362938 0.896497 0.25392 
17 1 0.41121 0.374139 0.304952 0 0 0 0.00978714 0.303141 0.948819 0.0880434 
27 1 0.524646 0.422898 0.285466 0 0 0 0.468719 0.382326 0.0945247 0.790692 
28 1 0.53772 0.419142 0.294293 0 0 0 0.306164 0.692178 0.127265 0.641059 
29 1 0.554385 0.417583 0.296877 0 0 0 0.405278 0.408687 0.12713 0.807814 
30 1 0.567377 0.41571 0.304786 0 0 0 0.338452 0.451242 0.332481 0.755836 
16 1 0.418943 0.369308 0.318267 0 0 0 -0.189151 0.144567 0.929931 0.28027 
15 1 0.428758 0.36648 0.329718 0 0 0 -0.30782 0.0459515 0.948932 0.0516157 
31 1 0.580188 0.418263 0.314077 0 0 0 0.346255 0.173881 0.200541 0.899809 
32 1 0.587047 0.42174 0.32779 0 0 0 0.159919 0.0691436 0.0223051 0.984453 
14 1 0.441199 0.363937 0.342496 0 0 0 -0.451041 -0.0250601 0.890617 0.0522935 
13 1 0.452385 0.359857 0.353687 0 0 0 -0.292809 -0.142971 0.938304 0.115792 
33 1 0.593197 0.422102 0.343017 0 0 0 0.241523 0.18503 0.307604 0.90156 
34 1 0.599034 0.428564 0.356608 0 0 0 0.345911 0.280994 0.172605 0.878405 
11 1 0.477008 0.34798 0.373351 0 0 0 -0.196155 -0.477908 0.794113 0.320173 
10 1 0.484872 0.341054 0.384534 0 0 0 -0.234586 -0.339555 0.847183 0.334594 
12 1 0.466113 0.353339 0.361292 0 0 0 -0.438131 -0.215169 0.801783 0.344801 
35 1 0.607452 0.429539 0.369314 0 0 0 0.356826 0.209884 0.0256931 0.909925 
36 1 0.613628 0.43057 0.384023 0 0 0 0.379111 0.0658649 0.105959 0.916902 
9 1 0.492605 0.333307 0.395799 0 0 0 -0.18934 -0.42237 0.760396 0.455578 
8 1 0.502955 0.325816 0.407399 0 0 0 -0.114727 -0.480491 0.813399 0.307161 
37 1 0.618051 0.432457 0.39935 0 0 0 0.436089 -0.108171 -0.0128279 0.893286 
7 1 0.515108 0.319173 0.41731 0 0 0 -0.152089 -0.625006 0.639874 0.420472 
6 1 0.525695 0.312653 0.426604 0 0 0 -0.044161 -0.583442 0.632973 0.506943 
5 1 0.53954 0.315222 0.435288 0 0 0 -0.339888 -0.776131 0.395405 0.354616 
39 1 0.615073 0.431186 0.431801 0 0 0 0.0396825 -0.168773 -0.192832 0.965793 
38 1 0.615468 0.431493 0.415615 0 0 0 0.276927 -0.0825816 -0.0390231 0.95654 
4 1 0.549893 0.319714 0.447896 0 0 0 -0.227259 -0.869524 0.326363 0.292864 
3 1 0.561487 0.323271 0.45843 0 0 0 -0.162926 -0.859848 0.274959 0.398138 
40 1 0.609307 0.429303 0.446988 0 0 0 0.203966 -0.123894 -0.08519 0.967363 
2 1 0.572626 0.33024 0.467627 0 0 0 -0.350001 -0.846965 0.274869 0.290855 
1 1 0.585549 0.331384 0.4762 0 0 0 -0.215525 -0.788033 0.35717 0.452749 
100 1 0.598989 0.331813 0.483887 0 0 0 -0.174137 -0.835799 0.333585 0.399797 
41 1 0.606271 0.426521 0.462538 0 0 0 0.154772 -0.201106 -0.0504915 0.965947 
42 1 0.601316 0.425802 0.477641 0 0 0 0.189804 0.124953 -0.228582 0.946632 
99 1 0.61582 0.328924 0.488752 0 0 0 -0.267212 -0.749771 0.333552 0.505158 
98 1 0.631923 0.327149 0.492203 0 0 0 -0.21721 -0.627753 0.383342 0.641713 
97 1 0.646069 0.327115 0.499 0 0 0 -0.14391 -0.761585 0.305298 0.553237 
96 1 0.656969 0.331017 0.50932 0 0 0 -0.285997 -0.891714 0.138656 0.322221 
43 1 0.601108 0.417486 0.490941 0 0 0 0.212723 -0.0225299 -0.265318 0.940132 
44 1 0.600372 0.412155 0.506088 0 0 0 -0.0074036 -0.0518271 -0.225053 0.972939 
95 1 0.663727 0.338225 0.521116 0 0 0 -0.329385 -0.875061 0.265506 0.235116 
94 1 0.671705 0.347655 0.531743 0 0 0 -0.346304 -0.900737 0.224058 0.136174 
45 1 0.599661 0.405835 0.520277 0 0 0 -0.157787 0.0724729 -0.35402 0.918978 
46 1 0.599905 0.394122 0.530235 0 0 0 -0.149378 0.194643 -0.352342 0.903136 
47 1 0.605116 0.38273 0.540152 0 0 0 0.00240217 0.213978 -0.318847 0.923333 
48 1 0.612914 0.374072 0.551204 0 0 0 -0.0143327 0.304799 -0.35692 0.882893 
49 1 0.619134 0.364324 0.562705 0 0 0 0.010897 0.374492 -0.261207 0.889611 
93 1 0.678678 0.359168 0.540527 0 0 0 -0.458898 -0.870808 0.173999 0.0288061 
92 1 0.690613 0.367056 0.548875 0 0 0 -0.432154 -0.77582 0.346565 0.302059 
91 1 0.703689 0.371722 0.556608 0 0 0 0.384457 0.773638 -0.346592 -0.365446 
50 1 0.629149 0.356651 0.572368 0 0 0 0.0288644 0.107153 -0.174154 0.978445 
51 1 0.635397 0.349858 0.584686 0 0 0 0.0304564 0.0968936 -0.401401 0.910253 
90 1 0.713198 0.38079 0.565692 0 0 0 0.484424 0.815756 -0.167647 -0.267901 
89 1 0.723971 0.385973 0.577937 0 0 0 0.241085 0.914577 -0.226388 -0.232756 
88 1 0.734226 0.38691 0.589648 0 0 0 0.0620026 0.912079 -0.166023 -0.369736 
53 1 0.641899 0.328325 0.609089 0 0 0 0.161467 -0.0316905 -0.364808 0.916428 
52 1 0.640102 0.33992 0.597012 0 0 0 0.051824 0.155351 -0.399374 0.902042 
87 1 0.742679 0.391034 0.602854 0 0 0 0.0406431 0.966343 -0.0428814 -0.250381 
55 1 0.642739 0.306375 0.632456 0 0 0 0.11445 -0.0702752 -0.33941 0.931002 
54 1 0.640569 0.315779 0.618537 0 0 0 0.145182 0.0818471 -0.292698 0.941569 
86 1 0.748935 0.393285 0.61729 0 0 0 -0.0726648 0.987779 -0.0164262 -0.136901 
85 1 0.748537 0.395498 0.633193 0 0 0 0.0501848 0.987406 0.13969 -0.0547567 
56 1 0.637749 0.295968 0.64395 0 0 0 -0.0197112 -0.0643584 -0.361124 0.930085 
57 1 0.635228 0.286127 0.656489 0 0 0 -0.0421055 0.00743632 -0.378235 0.924722 
84 1 0.754912 0.395903 0.647061 0 0 0 -0.0347391 0.971679 0.112997 -0.204609 
83 1 0.762431 0.398195 0.660609 0 0 0 0.0697078 0.966774 0.0828214 -0.23158 
58 1 0.63485 0.274202 0.66815 0 0 0 -0.181478 0.0651037 -0.387356 0.901545 
59 1 0.637002 0.263069 0.679128 0 0 0 -0.171394 -0.074167 -0.24386 0.951659 
82 1 0.768978 0.404433 0.673151 0 0 0 0.185107 0.950449 0.146257 -0.202464 
81 1 0.770427 0.408569 0.690358 0 0 0 0.158111 0.976682 0.120085 -0.0816804 
60 1 0.636085 0.254718 0.692413 0 0 0 -0.17258 -0.0870745 -0.225461 0.954883 
61 1 0.633028 0.24691 0.706609 0 0 0 -0.217846 -0.123229 0.116295 0.961162 
80 1 0.767317 0.405086 0.707336 0 0 0 -0.116505 0.991111 -0.0148012 0.0624982 
62 1 0.632517 0.249871 0.722657 0 0 0 -0.136972 0.0295538 0.204667 0.96875 
63 1 0.632269 0.255316 0.737891 0 0 0 -0.135397 0.145122 0.0789006 0.976925 
79 1 0.760215 0.403973 0.721153 0 0 0 0.121536 0.924966 0.184561 0.309198 
78 1 0.754859 0.401993 0.735508 0 0 0 0.0271263 0.922907 0.264533 0.278439 
64 1 0.633684 0.257255 0.753817 0 0 0 -0.143234 0.0172283 0.384071 0.911963 
65 1 0.637267 0.265924 0.76837 0 0 0 -0.0655812 0.382832 0.331724 0.859708 
75 1 0.734486 0.374265 0.763475 0 0 0 -0.322117 0.766473 0.441112 0.337906 
76 1 0.738618 0.387808 0.756442 0 0 0 -0.272211 0.792517 0.264303 0.477454 
77 1 0.748171 0.397755 0.748901 0 0 0 -0.00401449 0.950433 0.231083 0.207992 
66 1 0.645795 0.275628 0.777346 0 0 0 0.0254553 0.349169 0.372398 0.859507 
67 1 0.656584 0.285952 0.784777 0 0 0 0.0112623 0.552401 0.294545 0.779724 
68 1 0.669772 0.293912 0.787988 0 0 0 -0.0511154 0.574314 0.389599 0.718166 
69 1 0.682308 0.303767 0.79135 0 0 0 0.000676728 0.656509 0.335217 0.675741 
70 1 0.6974 0.3094 0.788553 0 0 0 -0.123321 0.64815 0.402112 0.634822 
71 1 0.709261 0.320301 0.786162 0 0 0 -0.0628914 0.659788 0.425533 0.616154 
72 1 0.721061 0.331877 0.783266 0 0 0 -0.332235 0.490015 0.554986 0.584376 
73 1 0.726528 0.347052 0.780142 0 0 0 -0.187923 0.634 0.495748 0.562995 
74 1 0.731576 0.361851 0.773813 0 0 0 -0.326783 0.657295 0.636781 0.235978 
ITEM: TIMESTEP
5000
ITEM: NUMBER OF ATOMS
100
ITEM: BOX BOUNDS pp pp pp
-30 30
-30 30
-30 30
ITEM: ATOMS id type xs ys zs ix iy iz c_quat[1] c_quat[2] c_quat[3] c_quat[4] 
25 1 0.496178 0.434625 0.265742 0 0 0 0.611702 0.18036 0.705393 0.309372 
26 1 0.51205 0.437657 0.263544 0 0 0 0.715171 0.0703303 0.607991 0.337537 
27 1 0.528048 0.442696 0.263952 0 0 0 0.680967 -0.0627064 0.678728 0.267732 
28 1 0.541751 0.450105 0.267403 0 0 0 0.826669 -0.0976915 0.52091 0.189016 
29 1 0.556423 0.455147 0.271631 0 0 0 0.798101 0.0645403 0.575746 0.165487 
22 1 0.45274 0.413316 0.281375 0 0 0 0.35567 -0.120303 0.880269 0.29009 
21 1 0.441858 0.407659 0.290834 0 0 0 0.413936 -0.0770785 0.891602 0.166618 
23 1 0.463973 0.421528 0.271259 0 0 0 0.54957 0.116112 0.747199 0.355226 
24 1 0.479731 0.428776 0.268303 0 0 0 0.543578 0.234765 0.757893 0.273874 
30 1 0.571178 0.459344 0.275442 0 0 0 0.7677 0.169528 0.555019 0.271754 
31 1 0.585533 0.459457 0.282457 0 0 0 0.816084 0.316508 0.354219 0.329179 
32 1 0.598044 0.455166 0.294063 0 0 0 0.838413 0.147399 0.402386 0.336782 
19 1 0.426271 0.397701 0.315882 0 0 0 0.268764 -0.169245 0.941292 0.114419 
20 1 0.433423 0.40222 0.302949 0 0 0 0.243212 -0.121798 0.952237 0.138775 
33 1 0.609254 0.452304 0.304715 0 0 0 0.893752 0.35449 0.122133 0.246228 
34 1 0.619361 0.447621 0.316666 0 0 0 0.800325 0.418553 0.0888737 0.419993 
35 1 0.627493 0.438231 0.327056 0 0 0 0.82737 0.335787 0.0382569 0.4486 
18 1 0.422963 0.392373 0.33029 0 0 0 0.0341837 -0.239638 0.95026 0.195986 
17 1 0.423791 0.387511 0.345757 0 0 0 0.0370637 -0.361672 0.928935 0.0699967 
36 1 0.631253 0.431675 0.342247 0 0 0 0.80735 0.100889 0.0366823 0.580226 
14 1 0.427839 0.366408 0.38828 0 0 0 0.0200066 -0.393234 0.876178 0.27799 
16 1 0.42425 0.380195 0.359096 0 0 0 0.0350627 -0.321333 0.922064 0.212868 
15 1 0.424409 0.372769 0.373786 0 0 0 0.108842 -0.327375 0.90734 0.240234 
38 1 0.642571 0.421976 0.371808 0 0 0 0.885267 0.109805 0.0985829 0.441052 
37 1 0.63609 0.428962 0.357955 0 0 0 0.877762 0.152892 0.116652 0.438805 
13 1 0.436203 0.357325 0.399596 0 0 0 -0.123798 -0.340871 0.844018 0.395113 
12 1 0.448181 0.351134 0.409613 0 0 0 -0.267174 -0.429206 0.805266 0.309753 
40 1 0.655009 0.415441 0.399472 0 0 0 0.822028 0.168502 0.0209769 0.543541 
39 1 0.648829 0.419684 0.386378 0 0 0 0.869665 0.193715 0.148451 0.429093 
11 1 0.461204 0.347615 0.418796 0 0 0 -0.274688 -0.409964 0.791771 0.359964 
10 1 0.474407 0.342152 0.425712 0 0 0 -0.330071 -0.334366 0.746897 0.470529 
42 1 0.664309 0.40892 0.429544 0 0 0 0.758786 0.178629 -0.0462312 0.624658 
41 1 0.659467 0.411695 0.414286 0 0 0 0.775632 0.199629 0.0532457 0.596413 
9 1 0.488626 0.336914 0.432778 0 0 0 -0.302184 -0.327321 0.781964 0.43598 
8 1 0.502944 0.333728 0.441978 0 0 0 -0.36669 -0.472835 0.746209 0.291783 
7 1 0.517867 0.333187 0.44945 0 0 0 -0.39066 -0.630781 0.640331 0.198686 
44 1 0.666075 0.399887 0.45887 0 0 0 0.811037 0.122227 -0.165307 0.54768 
43 1 0.667878 0.404073 0.44401 0 0 0 0.82727 0.0875382 -0.11906 0.54202 
100 1 0.625798 0.339537 0.476064 0 0 0 -0.232433 -0.715075 0.0502955 0.657353 
6 1 0.533844 0.333287 0.454324 0 0 0 -0.440913 -0.541408 0.584901 0.412752 
5 1 0.548769 0.337267 0.458987 0 0 0 -0.530994 -0.621325 0.519998 0.248198 
4 1 0.561749 0.338218 0.4685 0 0 0 -0.24981 -0.778627 0.501577 0.282411 
3 1 0.576864 0.336808 0.473211 0 0 0 -0.161556 -0.695023 0.394134 0.579224 
2 1 0.593956 0.337963 0.476019 0 0 0 -0.129596 -0.75094 0.209851 0.612582 
1 1 0.61056 0.336985 0.476772 0 0 0 -0.153246 -0.694549 0.209159 0.671096 
99 1 0.641885 0.340833 0.476693 0 0 0 -0.236043 -0.652329 0.263439 0.670336 
98 1 0.657009 0.344512 0.477926 0 0 0 -0.339532 -0.678759 0.165748 0.629708 
97 1 0.672484 0.348056 0.478027 0 0 0 -0.225556 -0.716173 0.0388126 0.659329 
96 1 0.68699 0.351201 0.483461 0 0 0 -0.101566 -0.836436 0.0815772 0.532357 
95 1 0.701577 0.355794 0.490019 0 0 0 -0.181806 -0.859526 0.0684937 0.472727 
45 1 0.665681 0.393183 0.473964 0 0 0 0.740752 0.204921 -0.190927 0.610606 
46 1 0.661221 0.388202 0.488523 0 0 0 0.648333 0.0796441 -0.326304 0.683262 
47 1 0.655841 0.379841 0.501653 0 0 0 0.646287 0.0198367 -0.314052 0.695192 
48 1 0.653078 0.372254 0.516182 0 0 0 0.449525 0.237869 -0.150905 0.847687 
94 1 0.714383 0.3637 0.496685 0 0 0 -0.276576 -0.866059 -0.0698009 0.410579 
93 1 0.726502 0.371483 0.504894 0 0 0 -0.244515 -0.828607 -0.0974432 0.494093 
92 1 0.738823 0.377064 0.511609 0 0 0 -0.168402 -0.864503 -0.107181 0.461289 
50 1 0.665289 0.355111 0.540719 0 0 0 0.382302 0.206054 -0.218935 0.873759 
49 1 0.658162 0.364701 0.529714 0 0 0 0.302406 0.342999 -0.200667 0.866392 
91 1 0.749795 0.384749 0.521116 0 0 0 0.171555 0.830204 0.218009 -0.483531 
90 1 0.754707 0.391199 0.534663 0 0 0 0.166302 0.913559 0.32368 -0.181619 
51 1 0.668285 0.344493 0.552039 0 0 0 0.418538 0.0908337 -0.357379 0.829973 
52 1 0.667994 0.334601 0.565359 0 0 0 0.381388 0.129032 -0.39965 0.823513 
89 1 0.75671 0.39832 0.549377 0 0 0 0.156792 0.911347 0.353345 -0.141457 
53 1 0.664187 0.325363 0.577345 0 0 0 0.331116 -0.0286781 -0.252064 0.908847 
54 1 0.658773 0.315645 0.590257 0 0 0 0.285159 -0.161189 -0.335801 0.883142 
88 1 0.761092 0.403313 0.56463 0 0 0 0.17798 0.848241 0.472363 -0.160263 
87 1 0.769313 0.407097 0.578391 0 0 0 0.115264 0.872078 0.391842 -0.269544 
56 1 0.643911 0.299577 0.612916 0 0 0 0.231534 -0.222044 -0.281086 0.904478 
55 1 0.652922 0.306639 0.601765 0 0 0 0.349323 -0.17489 -0.230433 0.891228 
86 1 0.774542 0.410127 0.593295 0 0 0 0.041093 0.918014 0.360178 -0.160726 
85 1 0.778082 0.412466 0.61025 0 0 0 0.0419507 0.946646 0.294106 -0.124914 
57 1 0.636962 0.292503 0.625158 0 0 0 0.197656 -0.111067 -0.178907 0.957386 
58 1 0.633152 0.28909 0.641976 0 0 0 0.384889 -0.0414474 -0.220945 0.895168 
84 1 0.780672 0.414959 0.625535 0 0 0 -0.0217185 0.976866 0.211052 -0.0267886 
83 1 0.783381 0.415236 0.641919 0 0 0 0.0984349 0.984595 0.140205 -0.0350053 
59 1 0.63153 0.28356 0.656904 0 0 0 0.257221 -0.0941402 -0.188392 0.943124 
82 1 0.781802 0.412348 0.657767 0 0 0 -0.0620404 0.988027 0.132438 0.0491345 
60 1 0.627789 0.279657 0.67184 0 0 0 0.229928 -0.124242 -0.31582 0.912116 
61 1 0.62367 0.27253 0.686393 0 0 0 0.176823 -0.031369 -0.164327 0.969921 
81 1 0.778188 0.410888 0.673741 0 0 0 -0.0350546 0.943246 0.209721 0.255098 
80 1 0.774452 0.406421 0.688957 0 0 0 -0.0544567 0.944994 0.191424 0.259574 
62 1 0.623344 0.268786 0.701872 0 0 0 0.297352 0.0855647 -0.0163539 0.950785 
63 1 0.62422 0.266814 0.716644 0 0 0 0.195123 0.165024 0.0402096 0.965959 
79 1 0.768936 0.407355 0.704633 0 0 0 0.0987742 0.96206 0.213661 0.13796 
78 1 0.759527 0.407969 0.718445 0 0 0 0.13126 0.886161 0.278724 0.346126 
64 1 0.630172 0.267617 0.731914 0 0 0 0.128036 0.331071 0.215596 0.90968 
77 1 0.749899 0.405044 0.730692 0 0 0 0.0983349 0.911631 0.315986 0.243745 
65 1 0.639241 0.272 0.744915 0 0 0 0.153895 0.434126 0.210174 0.862368 
66 1 0.652304 0.276956 0.75413 0 0 0 -0.0554145 0.415119 0.457166 0.784605 
75 1 0.729033 0.393266 0.75049 0 0 0 0.0465171 0.702455 0.484682 0.519112 
74 1 0.715912 0.386017 0.754038 0 0 0 0.0376986 0.581866 0.477942 0.656949 
76 1 0.740815 0.399994 0.742895 0 0 0 0.00579033 0.832789 0.419436 0.361252 
67 1 0.661474 0.288936 0.758951 0 0 0 -0.173575 0.475791 0.42183 0.752033 
68 1 0.670713 0.301476 0.761539 0 0 0 -0.306214 0.344226 0.513686 0.723788 
69 1 0.674272 0.317284 0.764108 0 0 0 -0.363518 0.493297 0.538219 0.578648 
70 1 0.67697 0.333543 0.760443 0 0 0 -0.290791 0.665852 0.350424 0.591003 
71 1 0.684544 0.347756 0.758466 0 0 0 -0.369664 0.55012 0.486751 0.569025 
72 1 0.693322 0.360855 0.755114 0 0 0 -0.184866 0.607123 0.489799 0.597764 
73 1 0.702427 0.374446 0.753578 0 0 0 -0.127004 0.546013 0.346523 0.752105 
ITEM: TIMESTEP
10000
ITEM: NUMBER OF ATOMS
100
ITEM: BOX BOUNDS pp pp pp
-30 30
-30 30
-30 30
ITEM: ATOMS id type xs ys zs ix iy iz c_quat[1] c_quat[2] c_quat[3] c_quat[4] 
20 1 0.451546 0.393091 0.296531 0 0 0 0.348292 -0.116428 0.723868 0.584082 
21 1 0.45927 0.406527 0.294386 0 0 0 0.416282 0.0148539 0.682931 0.600078 
22 1 0.46759 0.421462 0.29238 0 0 0 0.246386 -0.0359869 0.793209 0.555715 
23 1 0.474798 0.435838 0.290248 0 0 0 0.41766 -0.080912 0.751138 0.504782 
24 1 0.482518 0.450048 0.290744 0 0 0 0.367079 -0.137014 0.709983 0.585153 
25 1 0.490374 0.464054 0.292274 0 0 0 0.355456 0.00821828 0.626557 0.693549 
26 1 0.499263 0.478154 0.29425 0 0 0 0.470159 0.161894 0.64935 0.5754 
27 1 0.512337 0.488096 0.298231 0 0 0 0.370085 0.205926 0.647306 0.63374 
19 1 0.446472 0.378155 0.302057 0 0 0 0.404187 -0.171617 0.760208 0.478816 
18 1 0.441023 0.365673 0.310046 0 0 0 0.358736 -0.33125 0.843166 0.225064 
28 1 0.523863 0.498604 0.299469 0 0 0 0.453115 0.282016 0.450889 0.715439 
33 1 0.5978 0.506366 0.327644 0 0 0 0.566122 0.687747 0.233089 0.390101 
29 1 0.538041 0.504388 0.304581 0 0 0 0.568157 0.206915 0.431465 0.669494 
30 1 0.55176 0.507002 0.312701 0 0 0 0.608388 0.234581 0.324913 0.68503 
31 1 0.566403 0.508703 0.321688 0 0 0 0.597389 0.291223 0.482661 0.570399 
32 1 0.582339 0.511371 0.325692 0 0 0 0.612642 0.544192 0.402305 0.408259 
16 1 0.443093 0.344906 0.334115 0 0 0 0.0158456 -0.695076 0.682703 0.224799 
17 1 0.438537 0.354422 0.320905 0 0 0 0.363492 -0.475336 0.69415 0.400106 
34 1 0.611573 0.497175 0.327764 0 0 0 0.741178 0.514188 0.289653 0.31995 
35 1 0.622879 0.487407 0.332903 0 0 0 0.765998 0.613927 0.157022 0.108094 
36 1 0.630246 0.474613 0.338193 0 0 0 0.842574 0.519606 0.114103 0.0840178 
37 1 0.635646 0.459743 0.3449 0 0 0 0.852042 0.506417 0.107888 0.0769787 
15 1 0.450871 0.33916 0.347637 0 0 0 -0.0373647 -0.640443 0.71512 0.277561 
14 1 0.45672 0.336446 0.36262 0 0 0 -0.0668504 -0.667673 0.72982 0.130791 
38 1 0.639745 0.44593 0.353061 0 0 0 0.883282 0.465815 0.0373221 0.0379059 
39 1 0.640516 0.434093 0.364006 0 0 0 0.976785 0.1922 -0.0942304 0.00840096 
13 1 0.463487 0.335191 0.376551 0 0 0 -0.12118 -0.568519 0.747649 0.321127 
12 1 0.467622 0.330542 0.392218 0 0 0 -0.0271327 -0.743394 0.648183 0.162754 
11 1 0.473233 0.323129 0.405462 0 0 0 0.00292282 -0.671124 0.666166 0.325279 
41 1 0.633504 0.423661 0.394489 0 0 0 0.996856 0.00515354 -0.0778595 -0.01378 
40 1 0.638492 0.427467 0.379127 0 0 0 0.984883 0.12301 -0.121331 -0.0123495 
10 1 0.483687 0.318188 0.417377 0 0 0 -0.111622 -0.687876 0.611237 0.375174 
9 1 0.495715 0.317346 0.429589 0 0 0 -0.203111 -0.822932 0.408017 0.339192 
42 1 0.630169 0.42146 0.409558 0 0 0 0.99306 0.0931237 0.0142388 -0.0704048 
8 1 0.506277 0.315898 0.441965 0 0 0 -0.165774 -0.820363 0.381258 0.392639 
7 1 0.518613 0.311522 0.452373 0 0 0 -0.153515 -0.842242 0.373194 0.357473 
6 1 0.530545 0.308673 0.462687 0 0 0 -0.0638569 -0.796287 0.43251 0.418072 
43 1 0.631831 0.418131 0.425725 0 0 0 0.934447 0.225928 0.235339 -0.142759 
44 1 0.634636 0.410647 0.440374 0 0 0 0.954731 0.269693 0.123638 0.0216204 
5 1 0.543513 0.302995 0.468961 0 0 0 0.030734 -0.739377 0.40925 0.533752 
4 1 0.557565 0.297275 0.473392 0 0 0 0.0321454 -0.709548 0.319515 0.627231 
3 1 0.570711 0.289126 0.479304 0 0 0 0.110868 -0.762325 0.329208 0.546068 
45 1 0.639228 0.403144 0.4533 0 0 0 0.982188 0.0716661 0.0302625 0.171038 
46 1 0.641264 0.397997 0.469404 0 0 0 0.972561 0.159961 0.118857 0.120048 
2 1 0.584031 0.283982 0.488461 0 0 0 0.0947768 -0.848875 0.132403 0.50289 
1 1 0.596984 0.283405 0.497561 0 0 0 0.0348469 -0.844716 0.164222 0.508204 
100 1 0.609175 0.289006 0.506382 0 0 0 -0.106258 -0.873814 0.152358 0.449383 
99 1 0.622023 0.297338 0.514444 0 0 0 -0.195613 -0.885242 0.188013 0.3778 
98 1 0.633484 0.306696 0.521885 0 0 0 -0.446029 -0.860203 0.103366 0.224554 
97 1 0.645026 0.313849 0.530051 0 0 0 -0.369919 -0.844375 0.156221 0.354662 
47 1 0.642378 0.393056 0.483981 0 0 0 0.957513 0.0645987 -0.105552 0.260488 
48 1 0.637362 0.388704 0.499852 0 0 0 0.902264 0.121299 -0.168827 0.377761 
96 1 0.656295 0.322235 0.538634 0 0 0 -0.402103 -0.860611 0.145892 0.276364 
95 1 0.665091 0.334262 0.544945 0 0 0 -0.462119 -0.834765 0.0919085 0.284898 
94 1 0.673395 0.346651 0.551591 0 0 0 -0.3356 -0.820473 0.00446501 0.462792 
49 1 0.637439 0.382791 0.514798 0 0 0 0.812798 0.192307 -0.284509 0.470565 
50 1 0.634234 0.373859 0.527916 0 0 0 0.784926 0.185012 -0.176186 0.564464 
93 1 0.680972 0.359911 0.558365 0 0 0 -0.437626 -0.829707 -0.261355 0.227515 
52 1 0.629969 0.362568 0.556908 0 0 0 0.722171 0.121415 -0.20661 0.648876 
51 1 0.632343 0.366188 0.5418 0 0 0 0.79068 0.0546681 -0.095712 0.602225 
92 1 0.68824 0.371975 0.566379 0 0 0 -0.440799 -0.802344 -0.22563 0.333214 
54 1 0.622593 0.349542 0.584565 0 0 0 0.764443 0.122765 -0.264243 0.575092 
53 1 0.628178 0.356387 0.571651 0 0 0 0.697589 0.103792 -0.315815 0.634711 
91 1 0.697263 0.38501 0.576279 0 0 0 0.32243 0.847502 0.0981821 -0.410048 
90 1 0.706002 0.394818 0.587625 0 0 0 0.279049 0.85429 0.157452 -0.409304 
55 1 0.618668 0.34118 0.598182 0 0 0 0.675165 -0.00528643 -0.248946 0.69437 
89 1 0.709032 0.401418 0.603114 0 0 0 0.206305 0.906193 0.34512 -0.130938 
88 1 0.713434 0.405268 0.618354 0 0 0 0.160264 0.903342 0.358504 -0.172519 
87 1 0.71746 0.407963 0.634705 0 0 0 0.00555269 0.911863 0.369803 -0.178101 
56 1 0.61571 0.335846 0.612932 0 0 0 0.646629 0.13448 -0.268677 0.701141 
57 1 0.614093 0.327581 0.626418 0 0 0 0.658597 0.061301 -0.0835184 0.74533 
86 1 0.721008 0.413449 0.649346 0 0 0 0.0191657 0.814578 0.543675 -0.20128 
85 1 0.726887 0.416805 0.664512 0 0 0 0.0314006 0.76852 0.62364 -0.139516 
58 1 0.612957 0.32044 0.641525 0 0 0 0.708346 0.126227 0.0371384 0.693494 
84 1 0.730994 0.421675 0.679724 0 0 0 0.0660176 0.741532 0.626194 -0.231631 
59 1 0.614374 0.314564 0.656577 0 0 0 0.672467 0.237829 -0.0173077 0.700661 
60 1 0.617564 0.30941 0.671473 0 0 0 0.620389 0.0946329 0.0775388 0.774694 
83 1 0.733127 0.430173 0.692568 0 0 0 0.279599 0.724404 0.562184 -0.284626 
82 1 0.73913 0.436714 0.707084 0 0 0 -0.0271012 0.761326 0.57146 -0.305093 
61 1 0.619175 0.306472 0.687103 0 0 0 0.634252 0.112857 0.0173067 0.764649 
62 1 0.62352 0.30602 0.702313 0 0 0 0.530367 0.00603646 0.25208 0.809401 
81 1 0.741317 0.442211 0.722218 0 0 0 0.114158 0.806351 0.558821 -0.156479 
80 1 0.739729 0.448275 0.736957 0 0 0 0.191352 0.73761 0.646854 -0.0299278 
63 1 0.628195 0.30969 0.717826 0 0 0 0.490148 -0.0395316 0.301286 0.816957 
79 1 0.738877 0.4528 0.752134 0 0 0 0.138151 0.674852 0.724429 -0.0263001 
64 1 0.632998 0.314261 0.732541 0 0 0 0.477987 0.0352868 0.313571 0.819729 
65 1 0.639783 0.320727 0.746094 0 0 0 0.447854 0.0894559 0.290611 0.840815 
77 1 0.725354 0.451533 0.780393 0 0 0 0.162401 0.379752 0.863114 0.290599 
78 1 0.732909 0.455983 0.766919 0 0 0 0.19925 0.603682 0.769528 0.0607851 
66 1 0.648177 0.328024 0.759181 0 0 0 0.416097 0.154326 0.181939 0.877465 
67 1 0.656199 0.333956 0.772294 0 0 0 0.366186 -0.032454 0.452364 0.81254 
75 1 0.705491 0.435696 0.798973 0 0 0 0.309824 0.293975 0.845119 0.321498 
76 1 0.71633 0.44288 0.789917 0 0 0 0.246931 0.187248 0.878429 0.363765 
68 1 0.66235 0.344483 0.783654 0 0 0 0.233506 0.0899895 0.420407 0.872144 
69 1 0.667379 0.354358 0.795354 0 0 0 0.242211 0.0601101 0.440974 0.862127 
70 1 0.673274 0.366497 0.803768 0 0 0 0.247313 0.0780895 0.59045 0.764269 
71 1 0.679634 0.38018 0.810249 0 0 0 0.162965 -0.0117114 0.660784 0.732577 
72 1 0.684498 0.395176 0.812203 0 0 0 0.135039 0.132274 0.724053 0.663337 
74 1 0.695081 0.425316 0.807252 0 0 0 0.253542 0.148537 0.84265 0.451213 
73 1 0.689044 0.410474 0.811174 0 0 0 0.197666 0.124562 0.779426 0.581298 
ITEM: TIMESTEP
15000
ITEM: NUMBER OF ATOMS
100
ITEM: BOX BOUNDS pp pp pp
-30 30
-30 30
-30 30
ITEM: ATOMS id type xs ys zs ix iy iz c_quat[1] c_quat[2] c_quat[3] c_quat[4] 
28 1 0.53255 0.445555 0.277698 0 0 0 0.783228 -0.214314 0.581206 -0.0531269 
29 1 0.548522 0.449283 0.282645 0 0 0 0.861916 -0.0990185 0.464731 -0.17698 
23 1 0.461832 0.426538 0.298643 0 0 0 0.438901 -0.617204 0.646088 -0.0948462 
24 1 0.471379 0.433322 0.288403 0 0 0 0.554104 -0.376377 0.724279 -0.163491 
25 1 0.485037 0.437341 0.280207 0 0 0 0.530553 -0.400259 0.739302 -0.108345 
26 1 0.499908 0.439087 0.273855 0 0 0 0.722281 -0.26558 0.585596 -0.254667 
27 1 0.51537 0.442102 0.274632 0 0 0 0.779209 -0.191951 0.594602 -0.0493713 
30 1 0.562472 0.453297 0.290663 0 0 0 0.881203 -0.154025 0.44243 -0.063356 
31 1 0.575275 0.457052 0.299263 0 0 0 0.899636 -0.0877783 0.427725 0.00045161 
32 1 0.588352 0.460303 0.3086 0 0 0 0.860665 -0.0136121 0.503671 0.0733903 
20 1 0.432143 0.399434 0.324287 0 0 0 0.457053 -0.651161 0.605768 0.0116759 
21 1 0.440513 0.409988 0.315041 0 0 0 0.57627 -0.45438 0.679114 0.0159851 
22 1 0.452821 0.417592 0.307424 0 0 0 0.491578 -0.542276 0.680723 0.0300698 
33 1 0.601788 0.462881 0.316985 0 0 0 0.916399 -0.00895499 0.338651 0.213186 
34 1 0.614101 0.466893 0.326634 0 0 0 0.922223 0.242318 0.288367 0.0873544 
18 1 0.428462 0.377445 0.346159 0 0 0 0.282868 -0.79382 0.494995 0.211697 
19 1 0.428468 0.389545 0.334897 0 0 0 0.41798 -0.720724 0.539612 0.121113 
36 1 0.631237 0.454013 0.35151 0 0 0 0.985402 0.14173 -0.0310142 0.0890759 
35 1 0.622365 0.462005 0.339243 0 0 0 0.928733 0.204483 0.292647 0.0999935 
16 1 0.441837 0.356843 0.36882 0 0 0 0.134867 -0.85072 0.372531 0.345408 
15 1 0.449022 0.345269 0.377172 0 0 0 0.149536 -0.800207 0.264442 0.517087 
17 1 0.43327 0.365818 0.357135 0 0 0 0.159437 -0.790752 0.462057 0.368503 
37 1 0.634982 0.448553 0.366005 0 0 0 0.929024 0.367032 -0.046844 0.00278637 
14 1 0.458285 0.334308 0.384761 0 0 0 0.0850326 -0.786344 0.396805 0.465809 
13 1 0.467089 0.324575 0.394608 0 0 0 0.225744 -0.772015 0.407017 0.432863 
12 1 0.479112 0.317564 0.402863 0 0 0 0.032156 -0.797366 0.369963 0.47571 
38 1 0.633288 0.437871 0.379328 0 0 0 0.948964 0.274148 -0.0792423 -0.134277 
39 1 0.630439 0.4268 0.390335 0 0 0 0.958664 0.28432 -0.003165 -0.0107031 
11 1 0.490106 0.312608 0.414276 0 0 0 -0.00342462 -0.814542 0.369737 0.446995 
10 1 0.50165 0.308485 0.426472 0 0 0 -0.0629656 -0.811819 0.3351 0.474019 
40 1 0.627987 0.419768 0.403839 0 0 0 0.987379 0.0174125 -0.133736 -0.0830356 
41 1 0.621698 0.415243 0.418778 0 0 0 0.96273 0.122267 -0.240716 -0.0160364 
7 1 0.53303 0.300401 0.460239 0 0 0 -0.03396 -0.831008 0.196736 0.519198 
6 1 0.548489 0.300102 0.467231 0 0 0 -0.047399 -0.813471 0.106046 0.569889 
9 1 0.510188 0.306483 0.439571 0 0 0 0.0618899 -0.909894 0.368488 0.180218 
8 1 0.519608 0.301372 0.451908 0 0 0 0.0617721 -0.85315 0.406068 0.321602 
42 1 0.617454 0.408817 0.432365 0 0 0 0.914576 0.367816 -0.024939 0.166255 
43 1 0.617066 0.39806 0.445933 0 0 0 0.893423 0.41291 -0.176575 -0.0110649 
5 1 0.564772 0.299023 0.471605 0 0 0 0.0171315 -0.679661 0.0689981 0.730074 
4 1 0.578816 0.30522 0.478224 0 0 0 -0.13863 -0.856121 0.0034025 0.497822 
3 1 0.594242 0.310278 0.482921 0 0 0 -0.293731 -0.735441 -0.0325851 0.609743 
44 1 0.612373 0.387771 0.457834 0 0 0 0.898604 0.352493 -0.260878 -0.0142478 
2 1 0.609947 0.313716 0.487931 0 0 0 -0.102543 -0.776844 -0.0364148 0.62022 
1 1 0.625212 0.317763 0.492132 0 0 0 -0.197843 -0.745964 -0.114272 0.62557 
100 1 0.640117 0.322657 0.499288 0 0 0 -0.102251 -0.801211 -0.181716 0.560879 
45 1 0.605454 0.375796 0.46662 0 0 0 0.857009 0.45987 -0.181574 0.145209 
46 1 0.600163 0.36355 0.476311 0 0 0 0.868718 0.325013 -0.273523 0.254719 
99 1 0.653644 0.329697 0.505039 0 0 0 -0.0571231 -0.734798 -0.341396 0.583317 
98 1 0.66607 0.337496 0.512698 0 0 0 -0.0222366 -0.840824 -0.353355 0.409464 
97 1 0.676513 0.345055 0.521284 0 0 0 -0.151484 -0.785966 -0.319778 0.507003 
96 1 0.684675 0.355451 0.53043 0 0 0 -0.162565 -0.794225 -0.472545 0.345659 
48 1 0.59728 0.338193 0.493747 0 0 0 0.86625 0.340132 -0.0845191 0.356059 
47 1 0.596537 0.35131 0.486214 0 0 0 0.797457 0.495249 -0.163189 0.303579 
53 1 0.612091 0.280555 0.547545 0 0 0 0.792081 0.28867 -0.0572549 0.534789 
52 1 0.607239 0.291567 0.53569 0 0 0 0.729977 0.329029 -0.133157 0.584074 
51 1 0.601374 0.303417 0.525782 0 0 0 0.723393 0.37871 -0.0261844 0.576711 
50 1 0.598197 0.314709 0.514233 0 0 0 0.784954 0.401273 -0.120415 0.456429 
49 1 0.598005 0.325221 0.502965 0 0 0 0.831461 0.297666 -0.189124 0.429301 
95 1 0.69409 0.364969 0.538706 0 0 0 -0.257084 -0.7094 -0.399288 0.520796 
94 1 0.704145 0.374126 0.547284 0 0 0 -0.0832043 -0.83059 -0.384241 0.394406 
93 1 0.714386 0.383074 0.555939 0 0 0 -0.0650306 -0.724575 -0.473574 0.496478 
55 1 0.621426 0.26065 0.57081 0 0 0 0.846959 0.360651 -0.0557058 0.386637 
56 1 0.626798 0.251373 0.584371 0 0 0 0.843017 0.240281 -0.066603 0.476605 
54 1 0.615839 0.271414 0.559749 0 0 0 0.7638 0.360273 -0.109652 0.524203 
92 1 0.722357 0.39168 0.567134 0 0 0 -0.0744686 -0.731755 -0.578422 0.352729 
91 1 0.730774 0.395314 0.579949 0 0 0 -0.080164 0.833759 0.398919 -0.373206 
90 1 0.738775 0.396529 0.593203 0 0 0 -0.00951136 0.908644 0.351153 -0.225759 
57 1 0.628053 0.243497 0.597602 0 0 0 0.839729 0.172723 0.147062 0.493351 
58 1 0.634935 0.241245 0.611785 0 0 0 0.753909 0.120038 0.193718 0.616186 
89 1 0.74693 0.399984 0.605951 0 0 0 -0.0563624 0.863405 0.444287 -0.232303 
59 1 0.643254 0.24221 0.626115 0 0 0 0.760547 0.10811 0.262961 0.583723 
60 1 0.651913 0.243579 0.639386 0 0 0 0.711148 -0.0945105 0.172619 0.674936 
88 1 0.756418 0.400423 0.618013 0 0 0 -0.107598 0.739593 0.610019 -0.263252 
87 1 0.761743 0.401068 0.633291 0 0 0 -0.131341 0.706679 0.67309 -0.174082 
61 1 0.655613 0.244777 0.65577 0 0 0 0.575944 -0.162486 -0.00741797 0.801144 
86 1 0.766105 0.401435 0.648912 0 0 0 -0.035676 0.793761 0.586864 -0.155763 
85 1 0.765714 0.40324 0.665567 0 0 0 -0.0178574 0.711425 0.702357 -0.0157969 
62 1 0.655394 0.248333 0.670988 0 0 0 0.465824 -0.142418 0.0845332 0.869241 
63 1 0.653022 0.252438 0.686532 0 0 0 0.452507 -0.0206306 0.182609 0.87262 
84 1 0.760486 0.403114 0.680361 0 0 0 0.0390021 0.787076 0.582438 0.19939 
64 1 0.653611 0.257984 0.700713 0 0 0 0.417156 -0.145409 0.205423 0.873292 
65 1 0.64919 0.266581 0.714388 0 0 0 0.248653 -0.189285 0.0822389 0.946351 
83 1 0.755006 0.401769 0.695863 0 0 0 0.0419732 0.833994 0.534967 0.128459 
82 1 0.749869 0.400727 0.710266 0 0 0 0.0952883 0.772977 0.594382 0.200343 
66 1 0.64385 0.273849 0.728181 0 0 0 0.212127 -0.176976 0.29814 0.91367 