 LAMMPS data file

 100 atoms
 100 ellipsoids
 100 bonds
 200 angles

 1 atom types
 1 bond types
 2 angle types

 -30 30 xlo xhi
 -30 30 ylo yhi
 -30 30 zlo zhi


 Masses

1 1

 Atoms

 1 1 -7.5 -7.5 0 1 1 1.90986
 2 1 -7.5 -6 0 1 1 1.90986
 3 1 -7.5 -4.5 0 1 1 1.90986
 4 1 -7.5 -3 0 1 1 1.90986
 5 1 -7.5 -1.5 0 1 1 1.90986
 6 1 -7.5 0 0 1 1 1.90986
 7 1 -7.5 1.5 0 1 1 1.90986
 8 1 -7.5 3 0 1 1 1.90986
 9 1 -7.5 4.5 0 1 1 1.90986
 10 1 -7.5 6 0 1 1 1.90986
 11 1 -6 6 0 1 1 1.90986
 12 1 -6 4.5 0 1 1 1.90986
 13 1 -6 3 0 1 1 1.90986
 14 1 -6 1.5 0 1 1 1.90986
 15 1 -6 0 0 1 1 1.90986
 16 1 -6 -1.5 0 1 1 1.90986
 17 1 -6 -3 0 1 1 1.90986
 18 1 -6 -4.5 0 1 1 1.90986
 19 1 -6 -6 0 1 1 1.90986
 20 1 -4.5 -6 0 1 1 1.90986
 21 1 -4.5 -4.5 0 1 1 1.90986
 22 1 -4.5 -3 0 1 1 1.90986
 23 1 -4.5 -1.5 0 1 1 1.90986
 24 1 -4.5 0 0 1 1 1.90986
 25 1 -4.5 1.5 0 1 1 1.90986
 26 1 -4.5 3 0 1 1 1.90986
 27 1 -4.5 4.5 0 1 1 1.90986
 28 1 -4.5 6 0 1 1 1.90986
 29 1 -3 6 0 1 1 1.90986
 30 1 -3 4.5 0 1 1 1.90986
 31 1 -3 3 0 1 1 1.90986
 32 1 -3 1.5 0 1 1 1.90986
 33 1 -3 0 0 1 1 1.90986
 34 1 -3 -1.5 0 1 1 1.90986
 35 1 -3 -3 0 1 1 1.90986
 36 1 -3 -4.5 0 1 1 1.90986
 37 1 -3 -6 0 1 1 1.90986
 38 1 -1.5 -6 0 1 1 1.90986
 39 1 -1.5 -4.5 0 1 1 1.90986
 40 1 -1.5 -3 0 1 1 1.90986
 41 1 -1.5 -1.5 0 1 1 1.90986
 42 1 -1.5 0 0 1 1 1.90986
 43 1 -1.5 1.5 0 1 1 1.90986
 44 1 -1.5 3 0 1 1 1.90986
 45 1 -1.5 4.5 0 1 1 1.90986
 46 1 -1.5 6 0 1 1 1.90986
 47 1 0 6 0 1 1 1.90986
 48 1 0 4.5 0 1 1 1.90986
 49 1 0 3 0 1 1 1.90986
 50 1 0 1.5 0 1 1 1.90986
 51 1 0 0 0 1 1 1.90986
 52 1 0 -1.5 0 1 1 1.90986
 53 1 0 -3 0 1 1 1.90986
 54 1 0 -4.5 0 1 1 1.90986
 55 1 0 -6 0 1 1 1.90986
 56 1 1.5 -6 0 1 1 1.90986
 57 1 1.5 -4.5 0 1 1 1.90986
 58 1 1.5 -3 0 1 1 1.90986
 59 1 1.5 -1.5 0 1 1 1.90986
 60 1 1.5 0 0 1 1 1.90986
 61 1 1.5 1.5 0 1 1 1.90986
 62 1 1.5 3 0 1 1 1.90986
 63 1 1.5 4.5 0 1 1 1.90986
 64 1 1.5 6 0 1 1 1.90986
 65 1 3 6 0 1 1 1.90986
 66 1 3 4.5 0 1 1 1.90986
 67 1 3 3 0 1 1 1.90986
 68 1 3 1.5 0 1 1 1.90986
 69 1 3 0 0 1 1 1.90986
 70 1 3 -1.5 0 1 1 1.90986
 71 1 3 -3 0 1 1 1.90986
 72 1 3 -4.5 0 1 1 1.90986
 73 1 3 -6 0 1 1 1.90986
 74 1 4.5 -6 0 1 1 1.90986
 75 1 4.5 -4.5 0 1 1 1.90986
 76 1 4.5 -3 0 1 1 1.90986
 77 1 4.5 -1.5 0 1 1 1.90986
 78 1 4.5 0 0 1 1 1.90986
 79 1 4.5 1.5 0 1 1 1.90986
 80 1 4.5 3 0 1 1 1.90986
 81 1 4.5 4.5 0 1 1 1.90986
 82 1 4.5 6 0 1 1 1.90986
 83 1 6 6 0 1 1 1.90986
 84 1 6 4.5 0 1 1 1.90986
 85 1 6 3 0 1 1 1.90986
 86 1 6 1.5 0 1 1 1.90986
 87 1 6 0 0 1 1 1.90986
 88 1 6 -1.5 0 1 1 1.90986
 89 1 6 -3 0 1 1 1.90986
 90 1 6 -4.5 0 1 1 1.90986
 91 1 6 -6 0 1 1 1.90986
 92 1 6 -7.5 0 1 1 1.90986
 93 1 4.5 -7.5 0 1 1 1.90986
 94 1 3 -7.5 0 1 1 1.90986
 95 1 1.5 -7.5 0 1 1 1.90986
 96 1 0 -7.5 0 1 1 1.90986
 97 1 -1.5 -7.5 0 1 1 1.90986
 98 1 -3 -7.5 0 1 1 1.90986
 99 1 -4.5 -7.5 0 1 1 1.90986
 100 1 -6 -7.5 0 1 1 1.90986

 Ellipsoids

 1 1 1 1 0.707107 -0.707107 0 0
 2 1 1 1 0.707107 -0.707107 0 0
 3 1 1 1 0.707107 -0.707107 0 0
 4 1 1 1 0.707107 -0.707107 0 0
 5 1 1 1 0.707107 -0.707107 0 0
 6 1 1 1 0.707107 -0.707107 0 0
 7 1 1 1 0.707107 -0.707107 0 0
 8 1 1 1 0.707107 -0.707107 0 0
 9 1 1 1 0.707107 -0.707107 0 0
 10 1 1 1 0.5 -0.5 0.5 -0.5
 11 1 1 1 0 0 0.707107 -0.707107
 12 1 1 1 0 0 0.707107 -0.707107
 13 1 1 1 0 0 0.707107 -0.707107
 14 1 1 1 0 0 0.707107 -0.707107
 15 1 1 1 0 0 0.707107 -0.707107
 16 1 1 1 0 0 0.707107 -0.707107
 17 1 1 1 0 0 0.707107 -0.707107
 18 1 1 1 0 0 0.707107 -0.707107
 19 1 1 1 0.5 -0.5 0.5 -0.5
 20 1 1 1 0.707107 -0.707107 0 0
 21 1 1 1 0.707107 -0.707107 0 0
 22 1 1 1 0.707107 -0.707107 0 0
 23 1 1 1 0.707107 -0.707107 0 0
 24 1 1 1 0.707107 -0.707107 0 0
 25 1 1 1 0.707107 -0.707107 0 0
 26 1 1 1 0.707107 -0.707107 0 0
 27 1 1 1 0.707107 -0.707107 0 0
 28 1 1 1 0.5 -0.5 0.5 -0.5
 29 1 1 1 0 0 0.707107 -0.707107
 30 1 1 1 0 0 0.707107 -0.707107
 31 1 1 1 0 0 0.707107 -0.707107
 32 1 1 1 0 0 0.707107 -0.707107
 33 1 1 1 0 0 0.707107 -0.707107
 34 1 1 1 0 0 0.707107 -0.707107
 35 1 1 1 0 0 0.707107 -0.707107
 36 1 1 1 0 0 0.707107 -0.707107
 37 1 1 1 0.5 -0.5 0.5 -0.5
 38 1 1 1 0.707107 -0.707107 0 0
 39 1 1 1 0.707107 -0.707107 0 0
 40 1 1 1 0.707107 -0.707107 0 0
 41 1 1 1 0.707107 -0.707107 0 0
 42 1 1 1 0.707107 -0.707107 0 0
 43 1 1 1 0.707107 -0.707107 0 0
 44 1 1 1 0.707107 -0.707107 0 0
 45 1 1 1 0.707107 -0.707107 0 0
 46 1 1 1 0.5 -0.5 0.5 -0.5
 47 1 1 1 0 0 0.707107 -0.707107
 48 1 1 1 0 0 0.707107 -0.707107
 49 1 1 1 0 0 0.707107 -0.707107
 50 1 1 1 0 0 0.707107 -0.707107
 51 1 1 1 0 0 0.707107 -0.707107
 52 1 1 1 0 0 0.707107 -0.707107
 53 1 1 1 0 0 0.707107 -0.707107
 54 1 1 1 0 0 0.707107 -0.707107
 55 1 1 1 0.5 -0.5 0.5 -0.5
 56 1 1 1 0.707107 -0.707107 0 0
 57 1 1 1 0.707107 -0.707107 0 0
 58 1 1 1 0.707107 -0.707107 0 0
 59 1 1 1 0.707107 -0.707107 0 0
 60 1 1 1 0.707107 -0.707107 0 0
 61 1 1 1 0.707107 -0.707107 0 0
 62 1 1 1 0.707107 -0.707107 0 0
 63 1 1 1 0.707107 -0.707107 0 0
 64 1 1 1 0.5 -0.5 0.5 -0.5
 65 1 1 1 0 0 0.707107 -0.707107
 66 1 1 1 0 0 0.707107 -0.707107
 67 1 1 1 0 0 0.707107 -0.707107
 68 1 1 1 0 0 0.707107 -0.707107
 69 1 1 1 0 0 0.707107 -0.707107
 70 1 1 1 0 0 0.707107 -0.707107
 71 1 1 1 0 0 0.707107 -0.707107
 72 1 1 1 0 0 0.707107 -0.707107
 73 1 1 1 0.5 -0.5 0.5 -0.5
 74 1 1 1 0.707107 -0.707107 0 0
 75 1 1 1 0.707107 -0.707107 0 0
 76 1 1 1 0.707107 -0.707107 0 0
 77 1 1 1 0.707107 -0.707107 0 0
 78 1 1 1 0.707107 -0.707107 0 0
 79 1 1 1 0.707107 -0.707107 0 0
 80 1 1 1 0.707107 -0.707107 0 0
 81 1 1 1 0.707107 -0.707107 0 0
 82 1 1 1 0.5 -0.5 0.5 -0.5
 83 1 1 1 0 0 0.707107 -0.707107
 84 1 1 1 0 0 0.707107 -0.707107
 85 1 1 1 0 0 0.707107 -0.707107
 86 1 1 1 0 0 0.707107 -0.707107
 87 1 1 1 0 0 0.707107 -0.707107
 88 1 1 1 0 0 0.707107 -0.707107
 89 1 1 1 0 0 0.707107 -0.707107
 90 1 1 1 0 0 0.707107 -0.707107
 91 1 1 1 0 0 0.707107 -0.707107
 92 1 1 1 0.5 -0.5 -0.5 0.5
 93 1 1 1 0.5 -0.5 -0.5 0.5
 94 1 1 1 0.5 -0.5 -0.5 0.5
 95 1 1 1 0.5 -0.5 -0.5 0.5
 96 1 1 1 0.5 -0.5 -0.5 0.5
 97 1 1 1 0.5 -0.5 -0.5 0.5
 98 1 1 1 0.5 -0.5 -0.5 0.5
 99 1 1 1 0.5 -0.5 -0.5 0.5
 100 1 1 1 0.5 -0.5 -0.5 0.5

 Velocities

 1 0 0 0 0 0 0
 2 0 0 0 0 0 0
 3 0 0 0 0 0 0
 4 0 0 0 0 0 0
 5 0 0 0 0 0 0
 6 0 0 0 0 0 0
 7 0 0 0 0 0 0
 8 0 0 0 0 0 0
 9 0 0 0 0 0 0
 10 0 0 0 0 0 0
 11 0 0 0 0 0 0
 12 0 0 0 0 0 0
 13 0 0 0 0 0 0
 14 0 0 0 0 0 0
 15 0 0 0 0 0 0
 16 0 0 0 0 0 0
 17 0 0 0 0 0 0
 18 0 0 0 0 0 0
 19 0 0 0 0 0 0
 20 0 0 0 0 0 0
 21 0 0 0 0 0 0
 22 0 0 0 0 0 0
 23 0 0 0 0 0 0
 24 0 0 0 0 0 0
 25 0 0 0 0 0 0
 26 0 0 0 0 0 0
 27 0 0 0 0 0 0
 28 0 0 0 0 0 0
 29 0 0 0 0 0 0
 30 0 0 0 0 0 0
 31 0 0 0 0 0 0
 32 0 0 0 0 0 0
 33 0 0 0 0 0 0
 34 0 0 0 0 0 0
 35 0 0 0 0 0 0
 36 0 0 0 0 0 0
 37 0 0 0 0 0 0
 38 0 0 0 0 0 0
 39 0 0 0 0 0 0
 40 0 0 0 0 0 0
 41 0 0 0 0 0 0
 42 0 0 0 0 0 0
 43 0 0 0 0 0 0
 44 0 0 0 0 0 0
 45 0 0 0 0 0 0
 46 0 0 0 0 0 0
 47 0 0 0 0 0 0
 48 0 0 0 0 0 0
 49 0 0 0 0 0 0
 50 0 0 0 0 0 0
 51 0 0 0 0 0 0
 52 0 0 0 0 0 0
 53 0 0 0 0 0 0
 54 0 0 0 0 0 0
 55 0 0 0 0 0 0
 56 0 0 0 0 0 0
 57 0 0 0 0 0 0
 58 0 0 0 0 0 0
 59 0 0 0 0 0 0
 60 0 0 0 0 0 0
 61 0 0 0 0 0 0
 62 0 0 0 0 0 0
 63 0 0 0 0 0 0
 64 0 0 0 0 0 0
 65 0 0 0 0 0 0
 66 0 0 0 0 0 0
 67 0 0 0 0 0 0
 68 0 0 0 0 0 0
 69 0 0 0 0 0 0
 70 0 0 0 0 0 0
 71 0 0 0 0 0 0
 72 0 0 0 0 0 0
 73 0 0 0 0 0 0
 74 0 0 0 0 0 0
 75 0 0 0 0 0 0
 76 0 0 0 0 0 0
 77 0 0 0 0 0 0
 78 0 0 0 0 0 0
 79 0 0 0 0 0 0
 80 0 0 0 0 0 0
 81 0 0 0 0 0 0
 82 0 0 0 0 0 0
 83 0 0 0 0 0 0
 84 0 0 0 0 0 0
 85 0 0 0 0 0 0
 86 0 0 0 0 0 0
 87 0 0 0 0 0 0
 88 0 0 0 0 0 0
 89 0 0 0 0 0 0
 90 0 0 0 0 0 0
 91 0 0 0 0 0 0
 92 0 0 0 0 0 0
 93 0 0 0 0 0 0
 94 0 0 0 0 0 0
 95 0 0 0 0 0 0
 96 0 0 0 0 0 0
 97 0 0 0 0 0 0
 98 0 0 0 0 0 0
 99 0 0 0 0 0 0
 100 0 0 0 0 0 0

 Bonds

 1 1 1 2
 2 1 2 3
 3 1 3 4
 4 1 4 5
 5 1 5 6
 6 1 6 7
 7 1 7 8
 8 1 8 9
 9 1 9 10
 10 1 10 11
 11 1 11 12
 12 1 12 13
 13 1 13 14
 14 1 14 15
 15 1 15 16
 16 1 16 17
 17 1 17 18
 18 1 18 19
 19 1 19 20
 20 1 20 21
 21 1 21 22
 22 1 22 23
 23 1 23 24
 24 1 24 25
 25 1 25 26
 26 1 26 27
 27 1 27 28
 28 1 28 29
 29 1 29 30
 30 1 30 31
 31 1 31 32
 32 1 32 33
 33 1 33 34
 34 1 34 35
 35 1 35 36
 36 1 36 37
 37 1 37 38
 38 1 38 39
 39 1 39 40
 40 1 40 41
 41 1 41 42
 42 1 42 43
 43 1 43 44
 44 1 44 45
 45 1 45 46
 46 1 46 47
 47 1 47 48
 48 1 48 49
 49 1 49 50
 50 1 50 51
 51 1 51 52
 52 1 52 53
 53 1 53 54
 54 1 54 55
 55 1 55 56
 56 1 56 57
 57 1 57 58
 58 1 58 59
 59 1 59 60
 60 1 60 61
 61 1 61 62
 62 1 62 63
 63 1 63 64
 64 1 64 65
 65 1 65 66
 66 1 66 67
 67 1 67 68
 68 1 68 69
 69 1 69 70
 70 1 70 71
 71 1 71 72
 72 1 72 73
 73 1 73 74
 74 1 74 75
 75 1 75 76
 76 1 76 77
 77 1 77 78
 78 1 78 79
 79 1 79 80
 80 1 80 81
 81 1 81 82
 82 1 82 83
 83 1 83 84
 84 1 84 85
 85 1 85 86
 86 1 86 87
 87 1 87 88
 88 1 88 89
 89 1 89 90
 90 1 90 91
 91 1 91 92
 92 1 92 93
 93 1 93 94
 94 1 94 95
 95 1 95 96
 96 1 96 97
 97 1 97 98
 98 1 98 99
 99 1 99 100
 100 1 100 1

 Angles

 1 2 1 2 2
 2 1 1 2 3
 3 2 2 3 3
 4 1 2 3 4
 5 2 3 4 4
 6 1 3 4 5
 7 2 4 5 5
 8 1 4 5 6
 9 2 5 6 6
 10 1 5 6 7
 11 2 6 7 7
 12 1 6 7 8
 13 2 7 8 8
 14 1 7 8 9
 15 2 8 9 9
 16 1 8 9 10
 17 2 9 10 10
 18 1 9 10 11
 19 2 10 11 11
 20 1 10 11 12
 21 2 11 12 12
 22 1 11 12 13
 23 2 12 13 13
 24 1 12 13 14
 25 2 13 14 14
 26 1 13 14 15
 27 2 14 15 15
 28 1 14 15 16
 29 2 15 16 16
 30 1 15 16 17
 31 2 16 17 17
 32 1 16 17 18
 33 2 17 18 18
 34 1 17 18 19
 35 2 18 19 19
 36 1 18 19 20
 37 2 19 20 20
 38 1 19 20 21
 39 2 20 21 21
 40 1 20 21 22
 41 2 21 22 22
 42 1 21 22 23
 43 2 22 23 23
 44 1 22 23 24
 45 2 23 24 24
 46 1 23 24 25
 47 2 24 25 25
 48 1 24 25 26
 49 2 25 26 26
 50 1 25 26 27
 51 2 26 27 27
 52 1 26 27 28
 53 2 27 28 28
 54 1 27 28 29
 55 2 28 29 29
 56 1 28 29 30
 57 2 29 30 30
 58 1 29 30 31
 59 2 30 31 31
 60 1 30 31 32
 61 2 31 32 32
 62 1 31 32 33
 63 2 32 33 33
 64 1 32 33 34
 65 2 33 34 34
 66 1 33 34 35
 67 2 34 35 35
 68 1 34 35 36
 69 2 35 36 36
 70 1 35 36 37
 71 2 36 37 37
 72 1 36 37 38
 73 2 37 38 38
 74 1 37 38 39
 75 2 38 39 39
 76 1 38 39 40
 77 2 39 40 40
 78 1 39 40 41
 79 2 40 41 41
 80 1 40 41 42
 81 2 41 42 42
 82 1 41 42 43
 83 2 42 43 43
 84 1 42 43 44
 85 2 43 44 44
 86 1 43 44 45
 87 2 44 45 45
 88 1 44 45 46
 89 2 45 46 46
 90 1 45 46 47
 91 2 46 47 47
 92 1 46 47 48
 93 2 47 48 48
 94 1 47 48 49
 95 2 48 49 49
 96 1 48 49 50
 97 2 49 50 50
 98 1 49 50 51
 99 2 50 51 51
 100 1 50 51 52
 101 2 51 52 52
 102 1 51 52 53
 103 2 52 53 53
 104 1 52 53 54
 105 2 53 54 54
 106 1 53 54 55
 107 2 54 55 55
 108 1 54 55 56
 109 2 55 56 56
 110 1 55 56 57
 111 2 56 57 57
 112 1 56 57 58
 113 2 57 58 58
 114 1 57 58 59
 115 2 58 59 59
 116 1 58 59 60
 117 2 59 60 60
 118 1 59 60 61
 119 2 60 61 61
 120 1 60 61 62
 121 2 61 62 62
 122 1 61 62 63
 123 2 62 63 63
 124 1 62 63 64
 125 2 63 64 64
 126 1 63 64 65
 127 2 64 65 65
 128 1 64 65 66
 129 2 65 66 66
 130 1 65 66 67
 131 2 66 67 67
 132 1 66 67 68
 133 2 67 68 68
 134 1 67 68 69
 135 2 68 69 69
 136 1 68 69 70
 137 2 69 70 70
 138 1 69 70 71
 139 2 70 71 71
 140 1 70 71 72
 141 2 71 72 72
 142 1 71 72 73
 143 2 72 73 73
 144 1 72 73 74
 145 2 73 74 74
 146 1 73 74 75
 147 2 74 75 75
 148 1 74 75 76
 149 2 75 76 76
 150 1 75 76 77
 151 2 76 77 77
 152 1 76 77 78
 153 2 77 78 78
 154 1 77 78 79
 155 2 78 79 79
 156 1 78 79 80
 157 2 79 80 80
 158 1 79 80 81
 159 2 80 81 81
 160 1 80 81 82
 161 2 81 82 82
 162 1 81 82 83
 163 2 82 83 83
 164 1 82 83 84
 165 2 83 84 84
 166 1 83 84 85
 167 2 84 85 85
 168 1 84 85 86
 169 2 85 86 86
 170 1 85 86 87
 171 2 86 87 87
 172 1 86 87 88
 173 2 87 88 88
 174 1 87 88 89
 175 2 88 89 89
 176 1 88 89 90
 177 2 89 90 90
 178 1 89 90 91
 179 2 90 91 91
 180 1 90 91 92
 181 2 91 92 92
 182 1 91 92 93
 183 2 92 93 93
 184 1 92 93 94
 185 2 93 94 94
 186 1 93 94 95
 187 2 94 95 95
 188 1 94 95 96
 189 2 95 96 96
 190 1 95 96 97
 191 2 96 97 97
 192 1 96 97 98
 193 2 97 98 98
 194 1 97 98 99
 195 2 98 99 99
 196 1 98 99 100
 197 2 99 100 100
 198 1 99 100 1
 199 1 100 1 2
 200 2 100 1 1
