LAMMPS data file

400 atoms

1 atom types

-30 30 xlo xhi
-30 30 ylo yhi
-30 30 zlo zhi

Masses

1 1
 
Atoms

1 1 26.041 -27.867 7.616 0 0 0
2 1 -10.203 -29.669 -9.060 0 0 0
3 1 -17.709 29.436 -2.375 0 0 0
4 1 9.568 -12.491 -13.622 0 0 0
5 1 -17.568 -3.584 21.932 0 0 0
6 1 -6.480 10.142 26.021 0 0 0
7 1 19.542 -1.919 -9.889 0 0 0
8 1 -25.743 -1.607 20.995 0 0 0
9 1 -16.954 -22.167 20.949 0 0 0
10 1 -21.269 15.671 -6.920 0 0 0
11 1 -24.429 26.593 -6.115 0 0 0
12 1 -10.164 2.974 11.672 0 0 0
13 1 -15.067 17.802 -18.223 0 0 0
14 1 -12.791 25.800 8.748 0 0 0
15 1 19.597 13.807 14.164 0 0 0
16 1 -19.774 9.526 -14.750 0 0 0
17 1 -28.553 -10.143 -15.549 0 0 0
18 1 -11.699 29.645 5.626 0 0 0
19 1 -22.114 9.972 11.684 0 0 0
20 1 -16.530 -6.826 19.032 0 0 0
21 1 -19.236 2.780 -22.957 0 0 0
22 1 -11.625 6.026 -9.030 0 0 0
23 1 13.070 2.622 -22.977 0 0 0
24 1 24.119 -3.822 -11.579 0 0 0
25 1 -8.605 21.081 -14.740 0 0 0
26 1 -15.713 8.636 14.209 0 0 0
27 1 -7.410 25.002 11.929 0 0 0
28 1 -7.704 14.109 -2.734 0 0 0
29 1 5.954 0.430 1.415 0 0 0
30 1 8.055 8.912 -24.932 0 0 0
31 1 22.131 -10.169 19.103 0 0 0
32 1 7.100 3.777 9.913 0 0 0
33 1 -0.076 -6.954 -29.557 0 0 0
34 1 29.018 17.792 -5.513 0 0 0
35 1 -18.058 -19.471 7.256 0 0 0
36 1 28.297 -24.524 -18.065 0 0 0
37 1 -20.143 4.489 2.533 0 0 0
38 1 -3.979 19.188 -26.429 0 0 0
39 1 -5.228 28.781 21.357 0 0 0
40 1 -11.390 17.660 -3.075 0 0 0
41 1 29.575 -6.164 7.385 0 0 0
42 1 -21.675 -20.976 -7.578 0 0 0
43 1 -7.996 -18.175 19.459 0 0 0
44 1 -18.599 21.398 5.992 0 0 0
45 1 13.914 20.661 -20.909 0 0 0
46 1 4.160 -6.190 -27.386 0 0 0
47 1 20.241 -8.961 1.793 0 0 0
48 1 -17.251 -20.184 20.577 0 0 0
49 1 1.237 -7.033 13.259 0 0 0
50 1 -16.580 -5.650 -6.106 0 0 0
51 1 -22.007 -13.263 1.161 0 0 0
52 1 -3.753 -23.400 28.056 0 0 0
53 1 24.614 -12.253 0.536 0 0 0
54 1 10.390 2.770 -15.435 0 0 0
55 1 23.184 -22.766 17.953 0 0 0
56 1 -18.536 15.601 -2.384 0 0 0
57 1 29.081 -1.642 16.262 -1 0 0
58 1 -8.512 13.872 -13.162 0 0 0
59 1 8.799 -26.056 5.024 0 0 0
60 1 -6.488 -24.738 -3.343 0 0 0
61 1 10.818 14.074 -6.389 0 0 0
62 1 -8.278 18.136 3.433 0 0 0
63 1 -8.603 3.505 3.444 0 0 0
64 1 24.004 28.039 -9.325 0 0 0
65 1 -28.563 -1.059 13.353 0 0 0
66 1 0.704 22.172 8.257 0 0 0
67 1 -19.260 -20.941 15.061 0 0 0
68 1 -17.096 23.200 22.962 0 0 0
69 1 10.774 3.841 -15.918 0 0 0
70 1 24.784 7.921 -3.617 0 0 0
71 1 -11.248 6.749 -0.062 0 0 0
72 1 -15.325 -21.222 17.628 0 0 0
73 1 12.701 12.724 2.519 0 0 0
74 1 -11.851 -16.199 7.732 0 0 0
75 1 -14.996 -1.725 -21.598 0 0 0
76 1 22.302 16.411 7.482 0 0 0
77 1 -4.920 -0.498 6.973 0 0 0
78 1 -21.259 -19.994 -27.306 0 0 0
79 1 -24.915 23.125 -10.293 0 0 0
80 1 -17.988 -9.213 0.412 0 0 0
81 1 -14.449 -0.119 23.795 0 0 0
82 1 11.151 -14.308 26.724 0 0 0
83 1 4.519 -21.565 24.350 0 0 0
84 1 -2.196 -28.402 0.367 0 0 0
85 1 -17.865 -16.562 -4.480 0 0 0
86 1 -23.368 -24.872 28.025 0 0 0
87 1 25.267 -2.382 -20.846 0 0 0
88 1 12.328 -24.650 -1.254 0 0 0
89 1 -3.891 -15.363 -1.531 0 0 0
90 1 2.757 5.747 28.081 0 0 0
91 1 1.729 -17.805 -9.614 0 0 0
92 1 -15.894 25.057 -13.855 0 0 0
93 1 -25.553 -29.142 -1.076 0 0 0
94 1 3.695 -0.214 9.863 0 0 0
95 1 -19.149 12.501 3.689 0 0 0
96 1 -1.520 -23.149 11.048 0 0 0
97 1 7.552 -8.301 8.837 0 0 0
98 1 25.070 12.309 4.376 0 0 0
99 1 13.901 25.217 -11.903 0 0 0
100 1 -3.890 10.550 -10.009 0 0 0
101 1 -5.992 -16.987 -19.883 0 0 0
102 1 -3.455 -3.155 -2.095 0 0 0
103 1 -8.243 -9.236 21.436 0 0 0
104 1 -17.950 -22.895 10.449 0 0 0
105 1 -18.966 15.041 22.643 0 0 0
106 1 -6.131 14.065 -21.001 0 0 0
107 1 -21.420 10.181 -25.974 0 0 0
108 1 1.018 12.611 18.826 0 0 0
109 1 -10.916 -18.933 20.909 0 0 0
110 1 -24.808 15.365 -2.065 0 0 0
111 1 4.740 12.187 22.812 0 0 0
112 1 -10.863 -13.583 -18.038 0 0 0
113 1 -1.834 25.464 -8.472 0 0 0
114 1 -14.424 -28.244 3.672 0 0 0
115 1 -8.964 4.956 -9.744 0 0 0
116 1 -10.870 -11.108 3.188 0 0 0
117 1 -3.720 -1.337 4.027 0 0 0
118 1 19.976 -13.067 -11.450 0 0 0
119 1 20.360 -1.288 -16.882 0 0 0
120 1 -19.728 10.580 -10.162 0 0 0
121 1 -3.307 -1.073 19.457 0 0 0
122 1 -6.147 -1.333 -0.419 0 0 0
123 1 -10.947 -7.354 -17.416 0 0 0
124 1 3.988 3.474 11.570 0 0 0
125 1 16.591 -11.189 2.008 0 0 0
126 1 -19.484 -25.163 -21.977 0 0 0
127 1 3.719 -3.277 1.043 0 0 0
128 1 -18.336 11.556 6.420 0 0 0
129 1 24.706 -15.458 -17.993 0 0 0
130 1 27.635 4.963 1.047 0 0 0
131 1 -20.204 3.526 -22.883 0 0 0
132 1 -0.955 -25.136 -3.717 0 0 0
133 1 0.874 5.743 1.067 0 0 0
134 1 -5.301 -27.690 -29.256 0 0 0
135 1 -15.946 -20.690 10.804 0 0 0
136 1 -4.383 12.544 -4.103 0 0 0
137 1 5.096 -8.202 17.017 0 0 0
138 1 11.856 -5.706 0.496 0 0 0
139 1 -17.129 4.836 23.048 0 0 0
140 1 -4.792 6.209 -28.335 0 0 0
141 1 -17.647 5.875 7.110 0 0 0
142 1 1.363 5.094 16.365 0 0 0
143 1 -5.815 3.348 12.292 0 0 0
144 1 -27.551 -7.620 9.391 0 0 0
145 1 -13.062 23.955 -3.261 0 0 0
146 1 6.351 9.755 7.703 0 0 0
147 1 -14.808 -7.864 13.488 0 0 0
148 1 -26.414 -22.178 20.296 0 0 0
149 1 5.445 -18.276 -4.849 0 0 0
150 1 -3.449 17.203 -6.135 0 0 0
151 1 -14.803 -28.061 25.915 0 0 0
152 1 25.288 -12.244 20.107 0 0 0
153 1 -22.247 14.499 -13.662 0 0 0
154 1 -13.649 2.300 -1.850 0 0 0
155 1 6.948 16.850 -18.345 0 0 0
156 1 -9.365 4.112 10.941 0 0 0
157 1 -27.317 18.449 -0.245 0 0 0
158 1 13.623 -1.300 -4.820 0 0 0
159 1 -2.381 -8.444 -4.840 0 0 0
160 1 -7.250 -8.430 -8.938 0 0 0
161 1 -15.319 8.249 -12.059 0 0 0
162 1 -18.545 6.948 10.750 0 0 0
163 1 28.861 22.665 -2.443 0 0 0
164 1 13.239 15.501 -1.551 0 0 0
165 1 13.307 -5.690 -28.028 0 0 0
166 1 19.821 -27.067 -12.301 0 0 0
167 1 -2.121 12.610 -0.766 0 0 0
168 1 19.265 -25.073 22.209 0 0 0
169 1 -24.393 -9.418 7.597 0 0 0
170 1 -17.729 9.534 -6.495 0 0 0
171 1 -5.806 -4.432 17.115 0 0 0
172 1 -23.507 -3.797 4.322 0 0 0
173 1 -25.873 -18.096 -1.856 0 0 0
174 1 -2.550 -0.485 4.492 0 0 0
175 1 19.864 4.898 7.132 0 0 0
176 1 9.603 19.789 15.129 0 0 0
177 1 -11.419 13.930 -25.377 0 0 0
178 1 -9.965 -0.533 -13.600 0 0 0
179 1 10.132 8.201 7.897 0 0 0
180 1 -5.556 -14.342 -8.774 0 0 0
181 1 -0.556 25.766 0.024 0 0 0
182 1 24.324 22.266 17.576 0 0 0
183 1 -22.556 14.018 -29.434 0 0 0
184 1 11.024 24.856 1.134 0 0 0
185 1 0.180 17.905 -27.462 0 0 0
186 1 -10.823 14.596 -5.753 0 0 0
187 1 -12.378 6.478 4.009 0 0 0
188 1 -0.499 -23.213 16.132 0 0 0
189 1 7.472 -25.972 11.131 0 0 0
190 1 -12.888 7.261 -22.993 0 0 0
191 1 1.857 10.473 -5.607 0 0 0
192 1 6.347 12.719 24.657 0 0 0
193 1 9.409 9.136 -28.805 0 0 0
194 1 8.113 11.334 -1.265 0 0 0
195 1 -12.881 15.960 14.129 0 0 0
196 1 -12.340 4.741 9.066 0 0 0
197 1 -14.811 -4.909 9.372 0 0 0
198 1 -5.434 8.697 -5.564 0 0 0
199 1 5.522 8.928 21.666 0 0 0
200 1 -6.247 12.273 18.586 0 0 0
201 1 7.534 -22.609 -1.663 0 0 0
202 1 -21.634 -5.969 -0.842 0 0 0
203 1 -2.974 3.297 19.171 0 0 0
204 1 6.337 0.435 7.812 0 0 0
205 1 -8.102 -1.060 -8.052 0 0 0
206 1 -21.828 -0.076 -4.662 0 0 0
207 1 -6.537 -25.721 -5.770 0 0 0
208 1 -19.481 -14.392 -18.195 0 0 0
209 1 9.115 2.650 -4.747 0 0 0
210 1 1.911 -13.106 17.949 0 0 0
211 1 18.607 -22.251 17.375 0 0 0
212 1 -13.528 -27.816 19.031 0 0 0
213 1 10.015 -23.448 -22.874 0 0 0
214 1 25.103 -9.745 5.761 0 0 0
215 1 1.294 9.411 21.854 0 0 0
216 1 5.108 -11.708 -27.982 0 0 0
217 1 3.209 8.405 3.766 0 0 0
218 1 -1.445 7.267 -19.375 0 0 0
219 1 -15.160 8.724 9.852 0 0 0
220 1 23.555 24.758 16.485 0 0 0
221 1 27.611 -4.252 10.921 0 0 0
222 1 -0.053 28.945 13.620 0 0 0
223 1 -8.149 -6.975 -7.035 0 0 0
224 1 -2.571 14.748 -2.974 0 0 0
225 1 -7.663 1.629 -4.665 0 0 0
226 1 4.957 21.567 -21.190 0 0 0
227 1 -5.647 27.424 -17.807 0 0 0
228 1 -18.706 17.208 14.232 0 0 0
229 1 13.600 -1.669 -29.470 0 0 0
230 1 -3.527 -23.459 20.530 0 0 0
231 1 -15.253 1.973 5.236 0 0 0
232 1 14.722 25.487 8.991 0 0 0
233 1 -12.668 5.851 12.388 0 0 0
234 1 -5.064 3.314 -13.689 0 0 0
235 1 -5.569 24.393 -14.241 0 0 0
236 1 -10.782 -27.196 6.799 0 0 0
237 1 22.840 15.500 7.387 0 0 0
238 1 23.201 -28.325 -4.419 0 0 0
239 1 -1.465 13.077 0.176 0 0 0
240 1 1.013 23.450 -0.121 0 0 0
241 1 12.992 -7.629 7.529 0 0 0
242 1 13.325 6.635 -3.630 0 0 0
243 1 -8.321 7.094 -15.397 0 0 0
244 1 16.761 -6.575 -11.440 0 0 0
245 1 4.921 2.303 4.818 0 0 0
246 1 -5.587 -6.612 1.420 0 0 0
247 1 1.478 -26.537 -12.750 0 0 0
248 1 2.344 -3.139 10.661 0 0 0
249 1 -21.336 -20.789 6.920 0 0 0
250 1 -1.920 -16.341 -3.936 0 0 0
251 1 14.500 -3.262 -1.255 0 0 0
252 1 13.313 -16.749 -0.289 0 0 0
253 1 8.879 -29.944 -8.744 0 0 0
254 1 -3.520 -4.272 22.633 0 0 0
255 1 21.109 9.106 -14.342 0 0 0
256 1 1.266 -29.687 23.547 0 0 0
257 1 -12.970 29.446 8.237 0 0 0
258 1 22.300 18.053 -7.463 0 0 0
259 1 4.162 11.752 -10.801 0 0 0
260 1 4.599 -7.913 3.186 0 0 0
261 1 23.184 -0.345 -7.286 0 0 0
262 1 8.793 12.045 -29.824 0 0 0
263 1 8.182 -24.737 24.044 0 0 0
264 1 -7.847 9.855 13.886 0 0 0
265 1 3.701 12.293 21.774 0 0 0
266 1 17.627 11.205 -8.264 0 0 0
267 1 -12.782 10.126 1.251 0 0 0
268 1 -18.852 -7.284 -22.374 0 0 0
269 1 16.562 -9.389 16.612 0 0 0
270 1 7.905 19.572 15.068 0 0 0
271 1 9.304 23.186 28.664 0 0 0
272 1 2.687 -13.623 -1.848 0 0 0
273 1 9.374 15.419 -22.665 0 0 0
274 1 -13.180 28.792 9.321 0 0 0
275 1 -22.821 17.443 -5.123 0 0 0
276 1 6.695 19.505 -4.170 0 0 0
277 1 4.028 8.312 -8.275 0 0 0
278 1 11.571 15.096 -4.243 0 0 0
279 1 -20.323 -22.312 0.357 0 0 0
280 1 12.116 -2.506 4.151 0 0 0
281 1 9.961 5.232 7.988 0 0 0
282 1 -7.136 -0.324 8.435 0 0 0
283 1 6.251 19.715 16.436 0 0 0
284 1 -11.595 -12.898 14.890 0 0 0
285 1 -27.858 -6.593 13.467 0 0 0
286 1 23.615 6.654 10.476 0 0 0
287 1 -20.774 2.564 10.393 0 0 0
288 1 -18.247 1.315 4.236 0 0 0
289 1 -11.626 18.198 -4.268 0 0 0
290 1 -27.594 18.133 18.456 0 0 0
291 1 -25.765 -20.091 5.030 0 0 0
292 1 16.163 11.146 -3.363 0 0 0
293 1 8.187 -1.425 17.434 0 0 0
294 1 2.107 16.087 0.343 0 0 0
295 1 -1.525 -7.940 -9.789 0 0 0
296 1 29.612 -28.071 -12.286 0 0 0
297 1 18.811 0.003 3.743 0 0 0
298 1 18.426 -18.147 8.138 0 0 0
299 1 28.105 16.692 8.783 0 0 0
300 1 3.220 6.079 17.424 0 0 0
301 1 1.161 14.288 -9.647 0 0 0
302 1 -1.548 -3.353 -23.254 0 0 0
303 1 -3.525 -9.893 13.742 0 0 0
304 1 28.959 14.546 -8.532 0 0 0
305 1 -5.629 14.331 16.367 0 0 0
306 1 15.458 1.856 -7.282 0 0 0
307 1 11.167 16.008 7.702 0 0 0
308 1 8.124 22.424 17.436 0 0 0
309 1 11.264 11.559 9.858 0 0 0
310 1 8.751 -5.541 8.509 0 0 0
311 1 2.908 9.677 -25.560 0 0 0
312 1 12.977 -2.168 -2.404 0 0 0
313 1 16.957 19.970 8.299 0 0 0
314 1 8.813 7.607 -18.230 0 0 0
315 1 11.490 17.742 -2.053 0 0 0
316 1 -15.014 -1.055 15.015 0 0 0
317 1 -3.541 13.895 27.786 0 0 0
318 1 17.885 14.094 -6.258 0 0 0
319 1 -16.159 -10.436 -2.834 0 0 0
320 1 -22.337 7.493 -5.496 0 0 0
321 1 8.633 -14.831 -5.274 0 0 0
322 1 1.537 21.513 -0.489 0 0 0
323 1 18.487 -27.579 4.660 0 0 0
324 1 11.466 -0.013 -3.800 0 0 0
325 1 8.676 -11.851 24.169 0 0 0
326 1 26.384 -23.639 -10.319 0 0 0
327 1 11.384 -12.079 11.835 0 0 0
328 1 -29.840 -9.677 -15.354 0 0 0
329 1 17.635 6.268 -16.581 0 0 0
330 1 -8.170 -12.408 -13.757 0 0 0
331 1 25.398 -18.136 6.962 0 0 0
332 1 -14.386 27.642 -13.868 0 0 0
333 1 5.133 8.648 12.340 0 0 0
334 1 -15.414 -16.417 -9.840 0 0 0
335 1 10.883 -13.779 12.903 0 0 0
336 1 24.275 -1.981 5.544 0 0 0
337 1 -6.220 29.277 5.280 0 0 0
338 1 1.549 -21.865 2.624 0 0 0
339 1 -13.915 -17.371 2.778 0 0 0
340 1 17.333 -5.894 21.531 0 0 0
341 1 -1.929 -21.628 14.956 0 0 0
342 1 6.550 27.888 -11.822 0 0 0
343 1 21.931 -10.731 -24.975 0 0 0
344 1 3.992 28.896 -3.795 0 0 0
345 1 4.522 11.227 16.540 0 0 0
346 1 3.282 29.092 11.991 0 0 0
347 1 -5.167 -19.798 7.097 0 0 0
348 1 23.620 -7.041 -7.688 0 0 0
349 1 2.340 11.914 3.176 0 0 0
350 1 -9.545 -11.693 -1.677 0 0 0
351 1 -6.239 0.226 -5.264 0 0 0
352 1 -1.500 8.820 27.324 0 0 0
353 1 7.021 -1.982 -22.810 0 0 0
354 1 -1.533 -12.212 -7.461 0 0 0
355 1 9.056 -10.128 8.141 0 0 0
356 1 -10.753 18.960 11.717 0 0 0
357 1 21.056 -14.892 7.394 0 0 0
358 1 14.619 -17.604 -7.645 0 0 0
359 1 22.168 -20.733 13.374 0 0 0
360 1 -19.470 11.087 25.643 0 0 0
361 1 22.803 18.341 -4.576 0 0 0
362 1 5.549 14.295 -10.357 0 0 0
363 1 -7.157 3.886 3.579 0 0 0
364 1 11.175 9.354 27.412 0 0 0
365 1 7.390 16.587 4.389 0 0 0
366 1 -1.974 6.168 -15.240 0 0 0
367 1 -0.487 -7.107 -21.165 0 0 0
368 1 3.426 -6.958 -2.268 0 0 0
369 1 9.577 -6.398 0.477 0 0 0
370 1 -1.475 -7.423 16.606 0 0 0
371 1 7.322 18.839 -14.209 0 0 0
372 1 7.551 -9.587 -4.023 0 0 0
373 1 11.987 -18.245 -1.993 0 0 0
374 1 11.244 4.318 -5.044 0 0 0
375 1 7.792 -4.823 -5.130 0 0 0
376 1 -8.245 -10.637 -2.266 0 0 0
377 1 8.565 -24.383 0.241 0 0 0
378 1 16.727 29.043 -2.018 0 0 0
379 1 -9.541 16.187 -16.619 0 0 0
380 1 16.236 25.048 7.992 0 0 0
381 1 26.640 17.797 -3.231 0 0 0
382 1 7.700 -8.455 -0.308 0 0 0
383 1 15.757 -10.235 3.241 0 0 0
384 1 -15.110 0.758 -8.163 0 0 0
385 1 18.640 -5.824 -4.052 0 0 0
386 1 6.238 7.690 -29.628 0 0 0
387 1 10.114 1.734 -14.402 0 0 0
388 1 -1.583 2.782 -25.886 0 0 0
389 1 15.756 4.554 2.869 0 0 0
390 1 8.213 1.320 -7.310 0 0 0
391 1 5.805 5.511 -3.274 0 0 0
392 1 -7.840 -1.923 -20.507 0 0 0
393 1 -29.336 20.314 1.694 0 0 0
394 1 22.003 -0.800 29.824 0 0 0
395 1 6.299 -6.016 -3.154 0 0 0
396 1 7.739 -24.842 12.780 0 0 0
397 1 29.453 -17.289 -13.694 0 0 0
398 1 9.776 28.893 -3.780 0 0 0
399 1 16.918 -27.642 -22.645 0 0 0
400 1 5.152 16.845 7.716 0 0 0

Velocities

1 0.000 0.000 0.000
2 0.000 0.000 0.000
3 0.000 0.000 0.000
4 0.000 0.000 0.000
5 0.000 0.000 0.000
6 0.000 0.000 0.000
7 0.000 0.000 0.000
8 0.000 0.000 0.000
9 0.000 0.000 0.000
10 0.000 0.000 0.000
11 0.000 0.000 0.000
12 0.000 0.000 0.000
13 0.000 0.000 0.000
14 0.000 0.000 0.000
15 0.000 0.000 0.000
16 0.000 0.000 0.000
17 0.000 0.000 0.000
18 0.000 0.000 0.000
19 0.000 0.000 0.000
20 0.000 0.000 0.000
21 0.000 0.000 0.000
22 0.000 0.000 0.000
23 0.000 0.000 0.000
24 0.000 0.000 0.000
25 0.000 0.000 0.000
26 0.000 0.000 0.000
27 0.000 0.000 0.000
28 0.000 0.000 0.000
29 0.000 0.000 0.000
30 0.000 0.000 0.000
31 0.000 0.000 0.000
32 0.000 0.000 0.000
33 0.000 0.000 0.000
34 0.000 0.000 0.000
35 0.000 0.000 0.000
36 0.000 0.000 0.000
37 0.000 0.000 0.000
38 0.000 0.000 0.000
39 0.000 0.000 0.000
40 0.000 0.000 0.000
41 0.000 0.000 0.000
42 0.000 0.000 0.000
43 0.000 0.000 0.000
44 0.000 0.000 0.000
45 0.000 0.000 0.000
46 0.000 0.000 0.000
47 0.000 0.000 0.000
48 0.000 0.000 0.000
49 0.000 0.000 0.000
50 0.000 0.000 0.000
51 0.000 0.000 0.000
52 0.000 0.000 0.000
53 0.000 0.000 0.000
54 0.000 0.000 0.000
55 0.000 0.000 0.000
56 0.000 0.000 0.000
57 0.000 0.000 0.000
58 0.000 0.000 0.000
59 0.000 0.000 0.000
60 0.000 0.000 0.000
61 0.000 0.000 0.000
62 0.000 0.000 0.000
63 0.000 0.000 0.000
64 0.000 0.000 0.000
65 0.000 0.000 0.000
66 0.000 0.000 0.000
67 0.000 0.000 0.000
68 0.000 0.000 0.000
69 0.000 0.000 0.000
70 0.000 0.000 0.000
71 0.000 0.000 0.000
72 0.000 0.000 0.000
73 0.000 0.000 0.000
74 0.000 0.000 0.000
75 0.000 0.000 0.000
76 0.000 0.000 0.000
77 0.000 0.000 0.000
78 0.000 0.000 0.000
79 0.000 0.000 0.000
80 0.000 0.000 0.000
81 0.000 0.000 0.000
82 0.000 0.000 0.000
83 0.000 0.000 0.000
84 0.000 0.000 0.000
85 0.000 0.000 0.000
86 0.000 0.000 0.000
87 0.000 0.000 0.000
88 0.000 0.000 0.000
89 0.000 0.000 0.000
90 0.000 0.000 0.000
91 0.000 0.000 0.000
92 0.000 0.000 0.000
93 0.000 0.000 0.000
94 0.000 0.000 0.000
95 0.000 0.000 0.000
96 0.000 0.000 0.000
97 0.000 0.000 0.000
98 0.000 0.000 0.000
99 0.000 0.000 0.000
100 0.000 0.000 0.000
101 0.000 0.000 0.000
102 0.000 0.000 0.000
103 0.000 0.000 0.000
104 0.000 0.000 0.000
105 0.000 0.000 0.000
106 0.000 0.000 0.000
107 0.000 0.000 0.000
108 0.000 0.000 0.000
109 0.000 0.000 0.000
110 0.000 0.000 0.000
111 0.000 0.000 0.000
112 0.000 0.000 0.000
113 0.000 0.000 0.000
114 0.000 0.000 0.000
115 0.000 0.000 0.000
116 0.000 0.000 0.000
117 0.000 0.000 0.000
118 0.000 0.000 0.000
119 0.000 0.000 0.000
120 0.000 0.000 0.000
121 0.000 0.000 0.000
122 0.000 0.000 0.000
123 0.000 0.000 0.000
124 0.000 0.000 0.000
125 0.000 0.000 0.000
126 0.000 0.000 0.000
127 0.000 0.000 0.000
128 0.000 0.000 0.000
129 0.000 0.000 0.000
130 0.000 0.000 0.000
131 0.000 0.000 0.000
132 0.000 0.000 0.000
133 0.000 0.000 0.000
134 0.000 0.000 0.000
135 0.000 0.000 0.000
136 0.000 0.000 0.000
137 0.000 0.000 0.000
138 0.000 0.000 0.000
139 0.000 0.000 0.000
140 0.000 0.000 0.000
141 0.000 0.000 0.000
142 0.000 0.000 0.000
143 0.000 0.000 0.000
144 0.000 0.000 0.000
145 0.000 0.000 0.000
146 0.000 0.000 0.000
147 0.000 0.000 0.000
148 0.000 0.000 0.000
149 0.000 0.000 0.000
150 0.000 0.000 0.000
151 0.000 0.000 0.000
152 0.000 0.000 0.000
153 0.000 0.000 0.000
154 0.000 0.000 0.000
155 0.000 0.000 0.000
156 0.000 0.000 0.000
157 0.000 0.000 0.000
158 0.000 0.000 0.000
159 0.000 0.000 0.000
160 0.000 0.000 0.000
161 0.000 0.000 0.000
162 0.000 0.000 0.000
163 0.000 0.000 0.000
164 0.000 0.000 0.000
165 0.000 0.000 0.000
166 0.000 0.000 0.000
167 0.000 0.000 0.000
168 0.000 0.000 0.000
169 0.000 0.000 0.000
170 0.000 0.000 0.000
171 0.000 0.000 0.000
172 0.000 0.000 0.000
173 0.000 0.000 0.000
174 0.000 0.000 0.000
175 0.000 0.000 0.000
176 0.000 0.000 0.000
177 0.000 0.000 0.000
178 0.000 0.000 0.000
179 0.000 0.000 0.000
180 0.000 0.000 0.000
181 0.000 0.000 0.000
182 0.000 0.000 0.000
183 0.000 0.000 0.000
184 0.000 0.000 0.000
185 0.000 0.000 0.000
186 0.000 0.000 0.000
187 0.000 0.000 0.000
188 0.000 0.000 0.000
189 0.000 0.000 0.000
190 0.000 0.000 0.000
191 0.000 0.000 0.000
192 0.000 0.000 0.000
193 0.000 0.000 0.000
194 0.000 0.000 0.000
195 0.000 0.000 0.000
196 0.000 0.000 0.000
197 0.000 0.000 0.000
198 0.000 0.000 0.000
199 0.000 0.000 0.000
200 0.000 0.000 0.000
201 0.000 0.000 0.000
202 0.000 0.000 0.000
203 0.000 0.000 0.000
204 0.000 0.000 0.000
205 0.000 0.000 0.000
206 0.000 0.000 0.000
207 0.000 0.000 0.000
208 0.000 0.000 0.000
209 0.000 0.000 0.000
210 0.000 0.000 0.000
211 0.000 0.000 0.000
212 0.000 0.000 0.000
213 0.000 0.000 0.000
214 0.000 0.000 0.000
215 0.000 0.000 0.000
216 0.000 0.000 0.000
217 0.000 0.000 0.000
218 0.000 0.000 0.000
219 0.000 0.000 0.000
220 0.000 0.000 0.000
221 0.000 0.000 0.000
222 0.000 0.000 0.000
223 0.000 0.000 0.000
224 0.000 0.000 0.000
225 0.000 0.000 0.000
226 0.000 0.000 0.000
227 0.000 0.000 0.000
228 0.000 0.000 0.000
229 0.000 0.000 0.000
230 0.000 0.000 0.000
231 0.000 0.000 0.000
232 0.000 0.000 0.000
233 0.000 0.000 0.000
234 0.000 0.000 0.000
235 0.000 0.000 0.000
236 0.000 0.000 0.000
237 0.000 0.000 0.000
238 0.000 0.000 0.000
239 0.000 0.000 0.000
240 0.000 0.000 0.000
241 0.000 0.000 0.000
242 0.000 0.000 0.000
243 0.000 0.000 0.000
244 0.000 0.000 0.000
245 0.000 0.000 0.000
246 0.000 0.000 0.000
247 0.000 0.000 0.000
248 0.000 0.000 0.000
249 0.000 0.000 0.000
250 0.000 0.000 0.000
251 0.000 0.000 0.000
252 0.000 0.000 0.000
253 0.000 0.000 0.000
254 0.000 0.000 0.000
255 0.000 0.000 0.000
256 0.000 0.000 0.000
257 0.000 0.000 0.000
258 0.000 0.000 0.000
259 0.000 0.000 0.000
260 0.000 0.000 0.000
261 0.000 0.000 0.000
262 0.000 0.000 0.000
263 0.000 0.000 0.000
264 0.000 0.000 0.000
265 0.000 0.000 0.000
266 0.000 0.000 0.000
267 0.000 0.000 0.000
268 0.000 0.000 0.000
269 0.000 0.000 0.000
270 0.000 0.000 0.000
271 0.000 0.000 0.000
272 0.000 0.000 0.000
273 0.000 0.000 0.000
274 0.000 0.000 0.000
275 0.000 0.000 0.000
276 0.000 0.000 0.000
277 0.000 0.000 0.000
278 0.000 0.000 0.000
279 0.000 0.000 0.000
280 0.000 0.000 0.000
281 0.000 0.000 0.000
282 0.000 0.000 0.000
283 0.000 0.000 0.000
284 0.000 0.000 0.000
285 0.000 0.000 0.000
286 0.000 0.000 0.000
287 0.000 0.000 0.000
288 0.000 0.000 0.000
289 0.000 0.000 0.000
290 0.000 0.000 0.000
291 0.000 0.000 0.000
292 0.000 0.000 0.000
293 0.000 0.000 0.000
294 0.000 0.000 0.000
295 0.000 0.000 0.000
296 0.000 0.000 0.000
297 0.000 0.000 0.000
298 0.000 0.000 0.000
299 0.000 0.000 0.000
300 0.000 0.000 0.000
301 0.000 0.000 0.000
302 0.000 0.000 0.000
303 0.000 0.000 0.000
304 0.000 0.000 0.000
305 0.000 0.000 0.000
306 0.000 0.000 0.000
307 0.000 0.000 0.000
308 0.000 0.000 0.000
309 0.000 0.000 0.000
310 0.000 0.000 0.000
311 0.000 0.000 0.000
312 0.000 0.000 0.000
313 0.000 0.000 0.000
314 0.000 0.000 0.000
315 0.000 0.000 0.000
316 0.000 0.000 0.000
317 0.000 0.000 0.000
318 0.000 0.000 0.000
319 0.000 0.000 0.000
320 0.000 0.000 0.000
321 0.000 0.000 0.000
322 0.000 0.000 0.000
323 0.000 0.000 0.000
324 0.000 0.000 0.000
325 0.000 0.000 0.000
326 0.000 0.000 0.000
327 0.000 0.000 0.000
328 0.000 0.000 0.000
329 0.000 0.000 0.000
330 0.000 0.000 0.000
331 0.000 0.000 0.000
332 0.000 0.000 0.000
333 0.000 0.000 0.000
334 0.000 0.000 0.000
335 0.000 0.000 0.000
336 0.000 0.000 0.000
337 0.000 0.000 0.000
338 0.000 0.000 0.000
339 0.000 0.000 0.000
340 0.000 0.000 0.000
341 0.000 0.000 0.000
342 0.000 0.000 0.000
343 0.000 0.000 0.000
344 0.000 0.000 0.000
345 0.000 0.000 0.000
346 0.000 0.000 0.000
347 0.000 0.000 0.000
348 0.000 0.000 0.000
349 0.000 0.000 0.000
350 0.000 0.000 0.000
351 0.000 0.000 0.000
352 0.000 0.000 0.000
353 0.000 0.000 0.000
354 0.000 0.000 0.000
355 0.000 0.000 0.000
356 0.000 0.000 0.000
357 0.000 0.000 0.000
358 0.000 0.000 0.000
359 0.000 0.000 0.000
360 0.000 0.000 0.000
361 0.000 0.000 0.000
362 0.000 0.000 0.000
363 0.000 0.000 0.000
364 0.000 0.000 0.000
365 0.000 0.000 0.000
366 0.000 0.000 0.000
367 0.000 0.000 0.000
368 0.000 0.000 0.000
369 0.000 0.000 0.000
370 0.000 0.000 0.000
371 0.000 0.000 0.000
372 0.000 0.000 0.000
373 0.000 0.000 0.000
374 0.000 0.000 0.000
375 0.000 0.000 0.000
376 0.000 0.000 0.000
377 0.000 0.000 0.000
378 0.000 0.000 0.000
379 0.000 0.000 0.000
380 0.000 0.000 0.000
381 0.000 0.000 0.000
382 0.000 0.000 0.000
383 0.000 0.000 0.000
384 0.000 0.000 0.000
385 0.000 0.000 0.000
386 0.000 0.000 0.000
387 0.000 0.000 0.000
388 0.000 0.000 0.000
389 0.000 0.000 0.000
390 0.000 0.000 0.000
391 0.000 0.000 0.000
392 0.000 0.000 0.000
393 0.000 0.000 0.000
394 0.000 0.000 0.000
395 0.000 0.000 0.000
396 0.000 0.000 0.000
397 0.000 0.000 0.000
398 0.000 0.000 0.000
399 0.000 0.000 0.000
400 0.000 0.000 0.000
