ITEM: TIMESTEP
0
ITEM: NUMBER OF ATOMS
1
ITEM: BOX BOUNDS pp pp pp
-50 50
-50 50
-50 50
ITEM: ATOMS id type xs ys zs
1 1 0.5 0.5 0.5
ITEM: TIMESTEP
1000
ITEM: NUMBER OF ATOMS
1
ITEM: BOX BOUNDS pp pp pp
-50 50
-50 50
-50 50
ITEM: ATOMS id type xs ys zs
1 1 0.500681 0.49587 0.596681
ITEM: TIMESTEP
2000
ITEM: NUMBER OF ATOMS
1
ITEM: BOX BOUNDS pp pp pp
-50 50
-50 50
-50 50
ITEM: ATOMS id type xs ys zs
1 1 0.558203 0.553961 0.636815
ITEM: TIMESTEP
3000
ITEM: NUMBER OF ATOMS
1
ITEM: BOX BOUNDS pp pp pp
-50 50
-50 50
-50 50
ITEM: ATOMS id type xs ys zs
1 1 0.557796 0.541153 0.610399
ITEM: TIMESTEP
4000
ITEM: NUMBER OF ATOMS
1
ITEM: BOX BOUNDS pp pp pp
-50 50
-50 50
-50 50
ITEM: ATOMS id type xs ys zs
1 1 0.572172 0.55842 0.583949
ITEM: TIMESTEP
5000
ITEM: NUMBER OF ATOMS
1
ITEM: BOX BOUNDS pp pp pp
-50 50
-50 50
-50 50
ITEM: ATOMS id type xs ys zs
1 1 0.662661 0.540306 0.62843
ITEM: TIMESTEP
6000
ITEM: NUMBER OF ATOMS
1
ITEM: BOX BOUNDS pp pp pp
-50 50
-50 50
-50 50
ITEM: ATOMS id type xs ys zs
1 1 0.682236 0.47217 0.66244
ITEM: TIMESTEP
7000
ITEM: NUMBER OF ATOMS
1
ITEM: BOX BOUNDS pp pp pp
-50 50
-50 50
-50 50
ITEM: ATOMS id type xs ys zs
1 1 0.676258 0.462116 0.588718
ITEM: TIMESTEP
8000
ITEM: NUMBER OF ATOMS
1
ITEM: BOX BOUNDS pp pp pp
-50 50
-50 50
-50 50
ITEM: ATOMS id type xs ys zs
1 1 0.644823 0.5134 0.558574
ITEM: TIMESTEP
9000
ITEM: NUMBER OF ATOMS
1
ITEM: BOX BOUNDS pp pp pp
-50 50
-50 50
-50 50
ITEM: ATOMS id type xs ys zs
1 1 0.628129 0.561316 0.575277
ITEM: TIMESTEP
10000
ITEM: NUMBER OF ATOMS
1
ITEM: BOX BOUNDS pp pp pp
-50 50
-50 50
-50 50
ITEM: ATOMS id type xs ys zs
1 1 0.601814 0.561056 0.534079
