 LAMMPS data file for polymer

 200 atoms
 199 bonds
 198 angles

 1 atom types
 1 bond types
 1 angle types

 -25 25 xlo xhi
 -25 25 ylo yhi
 -25 25 zlo zhi


 Masses

 1 1

 Atoms

1 1 1 0 0 0 0 0 0
2 1 1 -0.13153 -0.0228451 -0.13153 0 0 0
3 1 1 0.50712 0.477863 0.50712 0 0 0
4 1 1 1.00641 -0.159566 1.00641 0 0 0
5 1 1 0.918464 -0.13676 0.918464 0 0 0
6 1 1 -0.0576937 0.0765949 -0.0576937 0 0 0
7 1 1 -0.27875 -0.796706 -0.27875 0 0 0
8 1 1 0.449963 -0.520619 0.449963 0 0 0
9 1 1 0.455932 -0.416246 0.455932 0 0 0
10 1 1 -0.281544 -0.0612401 -0.281544 0 0 0
11 1 1 -0.284234 -0.255151 -0.284234 0 0 0
12 1 1 -1.14097 -0.419294 -1.14097 0 0 0
13 1 1 -1.17548 -0.390071 -1.17548 0 0 0
14 1 1 -0.81819 0.523946 -0.81819 0 0 0
15 1 1 -0.524349 1.32843 -0.524349 0 0 0
16 1 1 -0.378196 2.03216 -0.378196 0 0 0
17 1 1 -0.642449 2.88341 -0.642449 0 0 0
18 1 1 0.0425718 2.66628 0.0425718 0 0 0
19 1 1 0.959035 2.93345 0.959035 0 0 0
20 1 1 0.556486 3.33716 0.556486 0 0 0
21 1 1 0.282458 4.29876 0.282458 0 0 0
22 1 1 0.570335 4.68324 0.570335 0 0 0
23 1 1 0.556404 4.67812 0.556404 0 0 0
24 1 1 1.14059 4.82056 1.14059 0 0 0
25 1 1 1.62259 4.47116 1.62259 0 0 0
26 1 1 1.52839 3.48111 1.52839 0 0 0
27 1 1 2.14327 4.12993 2.14327 0 0 0
28 1 1 1.75623 3.49957 1.75623 0 0 0
29 1 1 1.46855 2.54341 1.46855 0 0 0
30 1 1 1.7184 2.17467 1.7184 0 0 0
31 1 1 1.96376 2.37337 1.96376 0 0 0
32 1 1 1.77822 2.31625 1.77822 0 0 0
33 1 1 2.11348 1.41997 2.11348 0 0 0
34 1 1 2.48145 0.490139 2.48145 0 0 0
35 1 1 2.32814 0.91116 2.32814 0 0 0
36 1 1 1.98696 1.34045 1.98696 0 0 0
37 1 1 2.92629 1.49086 2.92629 0 0 0
38 1 1 2.13425 0.880557 2.13425 0 0 0
39 1 1 1.89328 -0.0564446 1.89328 0 0 0
40 1 1 1.24238 0.56711 1.24238 0 0 0
41 1 1 1.97021 1.16318 1.97021 0 0 0
42 1 1 1.95254 1.51126 1.95254 0 0 0
43 1 1 1.46092 1.98261 1.46092 0 0 0
44 1 1 1.47012 1.73541 1.47012 0 0 0
45 1 1 1.50751 1.48391 1.50751 0 0 0
46 1 1 2.45008 1.36233 2.45008 0 0 0
47 1 1 2.26127 1.05256 2.26127 0 0 0
48 1 1 2.02518 2.02056 2.02518 0 0 0
49 1 1 3.00765 2.18121 3.00765 0 0 0
50 1 1 2.87519 2.45392 2.87519 0 0 0
51 1 1 2.69864 3.2986 2.69864 0 0 0
52 1 1 3.46693 2.94375 3.46693 0 0 0
53 1 1 3.8015 3.69639 3.8015 0 0 0
54 1 1 4.565 3.06031 4.565 0 0 0
55 1 1 4.70838 3.35617 4.70838 0 0 0
56 1 1 3.9629 3.33988 3.9629 0 0 0
57 1 1 3.3866 3.87305 3.3866 0 0 0
58 1 1 2.71459 3.76282 2.71459 0 0 0
59 1 1 2.43044 3.13886 2.43044 0 0 0
60 1 1 2.85081 2.48886 2.85081 0 0 0
61 1 1 3.58316 1.82236 3.58316 0 0 0
62 1 1 3.30507 2.27741 3.30507 0 0 0
63 1 1 2.73301 3.08524 2.73301 0 0 0
64 1 1 3.65222 3.1734 3.65222 0 0 0
65 1 1 3.49891 2.26372 3.49891 0 0 0
66 1 1 3.25688 1.42598 3.25688 0 0 0
67 1 1 3.27632 1.42794 3.27632 0 0 0
68 1 1 2.91882 2.26436 2.91882 0 0 0
69 1 1 3.19484 2.78172 3.19484 0 0 0
70 1 1 3.69337 3.1106 3.69337 0 0 0
71 1 1 2.81626 3.26878 2.81626 0 0 0
72 1 1 2.1966 2.54265 2.1966 0 0 0
73 1 1 1.91689 2.89025 1.91689 0 0 0
74 1 1 1.54302 2.57167 1.54302 0 0 0
75 1 1 1.42554 2.61377 1.42554 0 0 0
76 1 1 0.436532 2.64296 0.436532 0 0 0
77 1 1 0.304386 3.48978 0.304386 0 0 0
78 1 1 0.655036 3.1306 0.655036 0 0 0
79 1 1 -0.239488 3.37235 -0.239488 0 0 0
80 1 1 0.104174 3.36493 0.104174 0 0 0
81 1 1 0.186955 3.89813 0.186955 0 0 0
82 1 1 0.494614 4.64275 0.494614 0 0 0
83 1 1 0.132654 5.22782 0.132654 0 0 0
84 1 1 -0.799294 5.59037 -0.799294 0 0 0
85 1 1 -1.07414 4.62941 -1.07414 0 0 0
86 1 1 -0.438613 3.86463 -0.438613 0 0 0
87 1 1 -0.0769309 4.25006 -0.0769309 0 0 0
88 1 1 0.905273 4.43776 0.905273 0 0 0
89 1 1 0.377047 3.58951 0.377047 0 0 0
90 1 1 -0.510933 3.43323 -0.510933 0 0 0
91 1 1 -0.24036 3.61975 -0.24036 0 0 0
92 1 1 -0.306584 3.64875 -0.306584 0 0 0
93 1 1 0.259377 2.92518 0.259377 0 0 0
94 1 1 1.08112 2.89109 1.08112 0 0 0
95 1 1 1.35999 3.6765 1.35999 0 0 0
96 1 1 1.32849 3.67748 1.32849 0 0 0
97 1 1 0.981629 2.77214 0.981629 0 0 0
98 1 1 0.543722 2.0556 0.543722 0 0 0
99 1 1 0.581232 2.14172 0.581232 0 0 0
100 1 1 0.271452 2.06194 0.271452 0 0 0
101 1 1 0.0518645 1.80512 0.0518645 0 0 0
102 1 1 0.918952 2.19695 0.918952 0 0 0
103 1 1 1.45477 1.7993 1.45477 0 0 0
104 1 1 1.44459 2.10097 1.44459 0 0 0
105 1 1 1.38275 1.12048 1.38275 0 0 0
106 1 1 1.06666 0.575636 1.06666 0 0 0
107 1 1 1.23681 0.113325 1.23681 0 0 0
108 1 1 1.3203 0.412835 1.3203 0 0 0
109 1 1 0.588526 0.890011 0.588526 0 0 0
110 1 1 1.16964 0.799494 1.16964 0 0 0
111 1 1 1.51784 1.68055 1.51784 0 0 0
112 1 1 2.50135 1.83582 2.50135 0 0 0
113 1 1 2.70866 2.13339 2.70866 0 0 0
114 1 1 3.41555 1.696 3.41555 0 0 0
115 1 1 3.63932 0.852243 3.63932 0 0 0
116 1 1 3.77517 1.83149 3.77517 0 0 0
117 1 1 4.36009 1.05143 4.36009 0 0 0
118 1 1 4.62595 1.80685 4.62595 0 0 0
119 1 1 4.0735 2.24539 4.0735 0 0 0
120 1 1 3.70657 3.16318 3.70657 0 0 0
121 1 1 3.74581 3.56761 3.74581 0 0 0
122 1 1 3.81707 3.55366 3.81707 0 0 0
123 1 1 3.92986 3.61338 3.92986 0 0 0
124 1 1 3.77549 3.11152 3.77549 0 0 0
125 1 1 3.06428 3.81302 3.06428 0 0 0
126 1 1 3.78218 4.26404 3.78218 0 0 0
127 1 1 4.36536 5.04971 4.36536 0 0 0
128 1 1 4.03278 5.16227 4.03278 0 0 0
129 1 1 4.29241 4.39307 4.29241 0 0 0
130 1 1 3.71273 3.69853 3.71273 0 0 0
131 1 1 4.07531 2.81227 4.07531 0 0 0
132 1 1 4.47626 2.86737 4.47626 0 0 0
133 1 1 4.92851 3.61043 4.92851 0 0 0
134 1 1 4.38429 3.9323 4.38429 0 0 0
135 1 1 3.90673 3.07144 3.90673 0 0 0
136 1 1 3.6245 2.36651 3.6245 0 0 0
137 1 1 3.53696 2.08265 3.53696 0 0 0
138 1 1 4.36292 1.78373 4.36292 0 0 0
139 1 1 4.68607 1.23399 4.68607 0 0 0
140 1 1 4.59942 2.12469 4.59942 0 0 0
141 1 1 4.31988 2.672 4.31988 0 0 0
142 1 1 4.47067 1.78714 4.47067 0 0 0
143 1 1 3.49308 1.98062 3.49308 0 0 0
144 1 1 3.5949 1.33938 3.5949 0 0 0
145 1 1 2.9475 0.957609 2.9475 0 0 0
146 1 1 3.57946 0.229601 3.57946 0 0 0
147 1 1 3.3917 1.15852 3.3917 0 0 0
148 1 1 3.71827 1.28976 3.71827 0 0 0
149 1 1 4.50258 1.88558 4.50258 0 0 0
150 1 1 5.49968 1.89135 5.49968 0 0 0
151 1 1 5.69676 2.5157 5.69676 0 0 0
152 1 1 5.32983 1.77508 5.32983 0 0 0
153 1 1 5.15638 2.01723 5.15638 0 0 0
154 1 1 4.78045 1.16878 4.78045 0 0 0
155 1 1 4.71633 1.71008 4.71633 0 0 0
156 1 1 4.59092 1.80841 4.59092 0 0 0
157 1 1 4.27383 2.71113 4.27383 0 0 0
158 1 1 4.74039 2.92162 4.74039 0 0 0
159 1 1 4.22041 3.31994 4.22041 0 0 0
160 1 1 4.67771 3.44775 4.67771 0 0 0
161 1 1 4.6751 3.50809 4.6751 0 0 0
162 1 1 4.46875 3.70839 4.46875 0 0 0
163 1 1 4.7317 2.7512 4.7317 0 0 0
164 1 1 5.70753 2.64873 5.70753 0 0 0
165 1 1 5.98257 2.48371 5.98257 0 0 0
166 1 1 5.95846 2.44059 5.95846 0 0 0
167 1 1 5.79673 2.12522 5.79673 0 0 0
168 1 1 6.67511 2.23086 6.67511 0 0 0
169 1 1 6.74733 2.21575 6.74733 0 0 0
170 1 1 6.96188 2.99065 6.96188 0 0 0
171 1 1 6.57096 2.44016 6.57096 0 0 0
172 1 1 7.0278 1.60733 7.0278 0 0 0
173 1 1 7.0472 1.4693 7.0472 0 0 0
174 1 1 7.0038 1.15521 7.0038 0 0 0
175 1 1 6.97157 0.652118 6.97157 0 0 0
176 1 1 7.36167 1.18165 7.36167 0 0 0
177 1 1 7.35718 1.17231 7.35718 0 0 0
178 1 1 6.38504 0.952931 6.38504 0 0 0
179 1 1 7.35631 0.732596 7.35631 0 0 0
180 1 1 6.68488 1.47134 6.68488 0 0 0
181 1 1 6.31239 1.46445 6.31239 0 0 0
182 1 1 6.42599 1.46003 6.42599 0 0 0
183 1 1 6.03587 1.81766 6.03587 0 0 0
184 1 1 6.0481 1.85614 6.0481 0 0 0
185 1 1 5.85689 0.987244 5.85689 0 0 0
186 1 1 5.03185 0.499237 5.03185 0 0 0
187 1 1 5.9446 0.552229 5.9446 0 0 0
188 1 1 5.51903 1.4177 5.51903 0 0 0
189 1 1 5.27768 2.00386 5.27768 0 0 0
190 1 1 5.42895 1.95433 5.42895 0 0 0
191 1 1 5.50039 1.80828 5.50039 0 0 0
192 1 1 5.79103 1.90006 5.79103 0 0 0
193 1 1 5.08349 1.19339 5.08349 0 0 0
194 1 1 6.03441 1.02695 6.03441 0 0 0
195 1 1 6.80213 1.6047 6.80213 0 0 0
196 1 1 5.94385 1.78028 5.94385 0 0 0
197 1 1 5.27073 2.4442 5.27073 0 0 0
198 1 1 5.47597 1.47288 5.47597 0 0 0
199 1 1 4.79567 1.58261 4.79567 0 0 0
200 1 1 4.83453 1.61358 4.83453 0 0 0

 Velocities

 1 0 0 0
 2 0 0 0
 3 0 0 0
 4 0 0 0
 5 0 0 0
 6 0 0 0
 7 0 0 0
 8 0 0 0
 9 0 0 0
 10 0 0 0
 11 0 0 0
 12 0 0 0
 13 0 0 0
 14 0 0 0
 15 0 0 0
 16 0 0 0
 17 0 0 0
 18 0 0 0
 19 0 0 0
 20 0 0 0
 21 0 0 0
 22 0 0 0
 23 0 0 0
 24 0 0 0
 25 0 0 0
 26 0 0 0
 27 0 0 0
 28 0 0 0
 29 0 0 0
 30 0 0 0
 31 0 0 0
 32 0 0 0
 33 0 0 0
 34 0 0 0
 35 0 0 0
 36 0 0 0
 37 0 0 0
 38 0 0 0
 39 0 0 0
 40 0 0 0
 41 0 0 0
 42 0 0 0
 43 0 0 0
 44 0 0 0
 45 0 0 0
 46 0 0 0
 47 0 0 0
 48 0 0 0
 49 0 0 0
 50 0 0 0
 51 0 0 0
 52 0 0 0
 53 0 0 0
 54 0 0 0
 55 0 0 0
 56 0 0 0
 57 0 0 0
 58 0 0 0
 59 0 0 0
 60 0 0 0
 61 0 0 0
 62 0 0 0
 63 0 0 0
 64 0 0 0
 65 0 0 0
 66 0 0 0
 67 0 0 0
 68 0 0 0
 69 0 0 0
 70 0 0 0
 71 0 0 0
 72 0 0 0
 73 0 0 0
 74 0 0 0
 75 0 0 0
 76 0 0 0
 77 0 0 0
 78 0 0 0
 79 0 0 0
 80 0 0 0
 81 0 0 0
 82 0 0 0
 83 0 0 0
 84 0 0 0
 85 0 0 0
 86 0 0 0
 87 0 0 0
 88 0 0 0
 89 0 0 0
 90 0 0 0
 91 0 0 0
 92 0 0 0
 93 0 0 0
 94 0 0 0
 95 0 0 0
 96 0 0 0
 97 0 0 0
 98 0 0 0
 99 0 0 0
 100 0 0 0
 101 0 0 0
 102 0 0 0
 103 0 0 0
 104 0 0 0
 105 0 0 0
 106 0 0 0
 107 0 0 0
 108 0 0 0
 109 0 0 0
 110 0 0 0
 111 0 0 0
 112 0 0 0
 113 0 0 0
 114 0 0 0
 115 0 0 0
 116 0 0 0
 117 0 0 0
 118 0 0 0
 119 0 0 0
 120 0 0 0
 121 0 0 0
 122 0 0 0
 123 0 0 0
 124 0 0 0
 125 0 0 0
 126 0 0 0
 127 0 0 0
 128 0 0 0
 129 0 0 0
 130 0 0 0
 131 0 0 0
 132 0 0 0
 133 0 0 0
 134 0 0 0
 135 0 0 0
 136 0 0 0
 137 0 0 0
 138 0 0 0
 139 0 0 0
 140 0 0 0
 141 0 0 0
 142 0 0 0
 143 0 0 0
 144 0 0 0
 145 0 0 0
 146 0 0 0
 147 0 0 0
 148 0 0 0
 149 0 0 0
 150 0 0 0
 151 0 0 0
 152 0 0 0
 153 0 0 0
 154 0 0 0
 155 0 0 0
 156 0 0 0
 157 0 0 0
 158 0 0 0
 159 0 0 0
 160 0 0 0
 161 0 0 0
 162 0 0 0
 163 0 0 0
 164 0 0 0
 165 0 0 0
 166 0 0 0
 167 0 0 0
 168 0 0 0
 169 0 0 0
 170 0 0 0
 171 0 0 0
 172 0 0 0
 173 0 0 0
 174 0 0 0
 175 0 0 0
 176 0 0 0
 177 0 0 0
 178 0 0 0
 179 0 0 0
 180 0 0 0
 181 0 0 0
 182 0 0 0
 183 0 0 0
 184 0 0 0
 185 0 0 0
 186 0 0 0
 187 0 0 0
 188 0 0 0
 189 0 0 0
 190 0 0 0
 191 0 0 0
 192 0 0 0
 193 0 0 0
 194 0 0 0
 195 0 0 0
 196 0 0 0
 197 0 0 0
 198 0 0 0
 199 0 0 0
 200 0 0 0

 Bonds

 1 1 1 2
 2 1 2 3
 3 1 3 4
 4 1 4 5
 5 1 5 6
 6 1 6 7
 7 1 7 8
 8 1 8 9
 9 1 9 10
 10 1 10 11
 11 1 11 12
 12 1 12 13
 13 1 13 14
 14 1 14 15
 15 1 15 16
 16 1 16 17
 17 1 17 18
 18 1 18 19
 19 1 19 20
 20 1 20 21
 21 1 21 22
 22 1 22 23
 23 1 23 24
 24 1 24 25
 25 1 25 26
 26 1 26 27
 27 1 27 28
 28 1 28 29
 29 1 29 30
 30 1 30 31
 31 1 31 32
 32 1 32 33
 33 1 33 34
 34 1 34 35
 35 1 35 36
 36 1 36 37
 37 1 37 38
 38 1 38 39
 39 1 39 40
 40 1 40 41
 41 1 41 42
 42 1 42 43
 43 1 43 44
 44 1 44 45
 45 1 45 46
 46 1 46 47
 47 1 47 48
 48 1 48 49
 49 1 49 50
 50 1 50 51
 51 1 51 52
 52 1 52 53
 53 1 53 54
 54 1 54 55
 55 1 55 56
 56 1 56 57
 57 1 57 58
 58 1 58 59
 59 1 59 60
 60 1 60 61
 61 1 61 62
 62 1 62 63
 63 1 63 64
 64 1 64 65
 65 1 65 66
 66 1 66 67
 67 1 67 68
 68 1 68 69
 69 1 69 70
 70 1 70 71
 71 1 71 72
 72 1 72 73
 73 1 73 74
 74 1 74 75
 75 1 75 76
 76 1 76 77
 77 1 77 78
 78 1 78 79
 79 1 79 80
 80 1 80 81
 81 1 81 82
 82 1 82 83
 83 1 83 84
 84 1 84 85
 85 1 85 86
 86 1 86 87
 87 1 87 88
 88 1 88 89
 89 1 89 90
 90 1 90 91
 91 1 91 92
 92 1 92 93
 93 1 93 94
 94 1 94 95
 95 1 95 96
 96 1 96 97
 97 1 97 98
 98 1 98 99
 99 1 99 100
 100 1 100 101
 101 1 101 102
 102 1 102 103
 103 1 103 104
 104 1 104 105
 105 1 105 106
 106 1 106 107
 107 1 107 108
 108 1 108 109
 109 1 109 110
 110 1 110 111
 111 1 111 112
 112 1 112 113
 113 1 113 114
 114 1 114 115
 115 1 115 116
 116 1 116 117
 117 1 117 118
 118 1 118 119
 119 1 119 120
 120 1 120 121
 121 1 121 122
 122 1 122 123
 123 1 123 124
 124 1 124 125
 125 1 125 126
 126 1 126 127
 127 1 127 128
 128 1 128 129
 129 1 129 130
 130 1 130 131
 131 1 131 132
 132 1 132 133
 133 1 133 134
 134 1 134 135
 135 1 135 136
 136 1 136 137
 137 1 137 138
 138 1 138 139
 139 1 139 140
 140 1 140 141
 141 1 141 142
 142 1 142 143
 143 1 143 144
 144 1 144 145
 145 1 145 146
 146 1 146 147
 147 1 147 148
 148 1 148 149
 149 1 149 150
 150 1 150 151
 151 1 151 152
 152 1 152 153
 153 1 153 154
 154 1 154 155
 155 1 155 156
 156 1 156 157
 157 1 157 158
 158 1 158 159
 159 1 159 160
 160 1 160 161
 161 1 161 162
 162 1 162 163
 163 1 163 164
 164 1 164 165
 165 1 165 166
 166 1 166 167
 167 1 167 168
 168 1 168 169
 169 1 169 170
 170 1 170 171
 171 1 171 172
 172 1 172 173
 173 1 173 174
 174 1 174 175
 175 1 175 176
 176 1 176 177
 177 1 177 178
 178 1 178 179
 179 1 179 180
 180 1 180 181
 181 1 181 182
 182 1 182 183
 183 1 183 184
 184 1 184 185
 185 1 185 186
 186 1 186 187
 187 1 187 188
 188 1 188 189
 189 1 189 190
 190 1 190 191
 191 1 191 192
 192 1 192 193
 193 1 193 194
 194 1 194 195
 195 1 195 196
 196 1 196 197
 197 1 197 198
 198 1 198 199
 199 1 199 200

 Angles

 1 1 1 2 3
 2 1 2 3 4
 3 1 3 4 5
 4 1 4 5 6
 5 1 5 6 7
 6 1 6 7 8
 7 1 7 8 9
 8 1 8 9 10
 9 1 9 10 11
 10 1 10 11 12
 11 1 11 12 13
 12 1 12 13 14
 13 1 13 14 15
 14 1 14 15 16
 15 1 15 16 17
 16 1 16 17 18
 17 1 17 18 19
 18 1 18 19 20
 19 1 19 20 21
 20 1 20 21 22
 21 1 21 22 23
 22 1 22 23 24
 23 1 23 24 25
 24 1 24 25 26
 25 1 25 26 27
 26 1 26 27 28
 27 1 27 28 29
 28 1 28 29 30
 29 1 29 30 31
 30 1 30 31 32
 31 1 31 32 33
 32 1 32 33 34
 33 1 33 34 35
 34 1 34 35 36
 35 1 35 36 37
 36 1 36 37 38
 37 1 37 38 39
 38 1 38 39 40
 39 1 39 40 41
 40 1 40 41 42
 41 1 41 42 43
 42 1 42 43 44
 43 1 43 44 45
 44 1 44 45 46
 45 1 45 46 47
 46 1 46 47 48
 47 1 47 48 49
 48 1 48 49 50
 49 1 49 50 51
 50 1 50 51 52
 51 1 51 52 53
 52 1 52 53 54
 53 1 53 54 55
 54 1 54 55 56
 55 1 55 56 57
 56 1 56 57 58
 57 1 57 58 59
 58 1 58 59 60
 59 1 59 60 61
 60 1 60 61 62
 61 1 61 62 63
 62 1 62 63 64
 63 1 63 64 65
 64 1 64 65 66
 65 1 65 66 67
 66 1 66 67 68
 67 1 67 68 69
 68 1 68 69 70
 69 1 69 70 71
 70 1 70 71 72
 71 1 71 72 73
 72 1 72 73 74
 73 1 73 74 75
 74 1 74 75 76
 75 1 75 76 77
 76 1 76 77 78
 77 1 77 78 79
 78 1 78 79 80
 79 1 79 80 81
 80 1 80 81 82
 81 1 81 82 83
 82 1 82 83 84
 83 1 83 84 85
 84 1 84 85 86
 85 1 85 86 87
 86 1 86 87 88
 87 1 87 88 89
 88 1 88 89 90
 89 1 89 90 91
 90 1 90 91 92
 91 1 91 92 93
 92 1 92 93 94
 93 1 93 94 95
 94 1 94 95 96
 95 1 95 96 97
 96 1 96 97 98
 97 1 97 98 99
 98 1 98 99 100
 99 1 99 100 101
 100 1 100 101 102
 101 1 101 102 103
 102 1 102 103 104
 103 1 103 104 105
 104 1 104 105 106
 105 1 105 106 107
 106 1 106 107 108
 107 1 107 108 109
 108 1 108 109 110
 109 1 109 110 111
 110 1 110 111 112
 111 1 111 112 113
 112 1 112 113 114
 113 1 113 114 115
 114 1 114 115 116
 115 1 115 116 117
 116 1 116 117 118
 117 1 117 118 119
 118 1 118 119 120
 119 1 119 120 121
 120 1 120 121 122
 121 1 121 122 123
 122 1 122 123 124
 123 1 123 124 125
 124 1 124 125 126
 125 1 125 126 127
 126 1 126 127 128
 127 1 127 128 129
 128 1 128 129 130
 129 1 129 130 131
 130 1 130 131 132
 131 1 131 132 133
 132 1 132 133 134
 133 1 133 134 135
 134 1 134 135 136
 135 1 135 136 137
 136 1 136 137 138
 137 1 137 138 139
 138 1 138 139 140
 139 1 139 140 141
 140 1 140 141 142
 141 1 141 142 143
 142 1 142 143 144
 143 1 143 144 145
 144 1 144 145 146
 145 1 145 146 147
 146 1 146 147 148
 147 1 147 148 149
 148 1 148 149 150
 149 1 149 150 151
 150 1 150 151 152
 151 1 151 152 153
 152 1 152 153 154
 153 1 153 154 155
 154 1 154 155 156
 155 1 155 156 157
 156 1 156 157 158
 157 1 157 158 159
 158 1 158 159 160
 159 1 159 160 161
 160 1 160 161 162
 161 1 161 162 163
 162 1 162 163 164
 163 1 163 164 165
 164 1 164 165 166
 165 1 165 166 167
 166 1 166 167 168
 167 1 167 168 169
 168 1 168 169 170
 169 1 169 170 171
 170 1 170 171 172
 171 1 171 172 173
 172 1 172 173 174
 173 1 173 174 175
 174 1 174 175 176
 175 1 175 176 177
 176 1 176 177 178
 177 1 177 178 179
 178 1 178 179 180
 179 1 179 180 181
 180 1 180 181 182
 181 1 181 182 183
 182 1 182 183 184
 183 1 183 184 185
 184 1 184 185 186
 185 1 185 186 187
 186 1 186 187 188
 187 1 187 188 189
 188 1 188 189 190
 189 1 189 190 191
 190 1 190 191 192
 191 1 191 192 193
 192 1 192 193 194
 193 1 193 194 195
 194 1 194 195 196
 195 1 195 196 197
 196 1 196 197 198
 197 1 197 198 199
 198 1 198 199 200
