 LAMMPS data file

 1 atoms

 1 atom types

 -50 50 xlo xhi
 -50 50 ylo yhi
 -50 50 zlo zhi


 Masses

 1 1

 Atoms

 1 1 0.0 0.0 0.0 0 0 0 
